7_2_edge.lmp (written by ASE) 

13399 	 atoms 
1  atom types
0.0      605.61289928055407  xlo xhi
0.0      70.059778441290007  ylo yhi
0.0                     100  zlo zhi


Atoms 

     1   1      50.301844781118319      27.666804251224391      3.4999701999999999
     2   1      50.603709925511168      29.061059630217812      3.4999701999999999
     3   1        51.2074257268129       31.84950347338247      3.4999701999999999
     4   1      50.452772023281824        34.2022724170603      3.4999701999999999
     5   1      49.999990296791367      14.595867919552688      3.4999701999999999
     6   1      50.301855441184216      15.990123298546081      3.4999701999999999
     7   1      50.905571242485934      18.778567141710681      3.4999701999999999
     8   1      51.207436386878783      20.172822520704102      3.4999701999999999
     9   1      50.150917538954857       21.13133608538854      3.4999701999999999
    10   1      50.452782683347706      22.525591464381932      3.4999701999999999
    11   1      51.811152188180515      22.961266363868759      3.4999701999999999
    12   1      52.113017332573349      24.355521742862152      3.4999701999999999
    13   1      51.056498484649438      25.314035307546618      3.4999701999999999
    14   1      51.358363629042273      26.708290686539954      3.4999701999999999
    15   1      52.716733133875067      27.143965586026752      3.4999701999999999
    16   1      53.018598278267916      28.538220965020173      3.4999701999999999
    17   1      51.962079430343991      29.496734529704582      3.4999701999999999
    18   1       52.26394457473684      30.890989908698003      3.4999701999999999
    19   1      53.622314079569648       31.32666480818483      3.4999701999999999
    20   1      53.924179223962483      32.720920187178223      3.4999701999999999
    21   1      52.867660376038572      33.679433751862661      3.4999701999999999
    22   1      50.000000956857264      2.9191869668743493      3.4999701999999999
    23   1      50.603716758158996      5.7076308100390065      3.4999701999999999
    24   1       50.90558190255183      7.1018861890323706      3.4999701999999999
    25   1       50.15092819902074      9.4546551327102009      3.4999701999999999
    26   1      51.509297703853548      9.8903300321969994      3.4999701999999999
    27   1      51.811162848246397       11.28458541119042      3.4999701999999999
    28   1      50.754644000322472      12.243098975874858      3.4999701999999999
    29   1      51.056509144715321      13.637354354868279      3.4999701999999999
    30   1      52.414878649548129      14.073029254355077      3.4999701999999999
    31   1      52.716743793940978       15.46728463334847      3.4999701999999999
    32   1      51.660224946017038      16.425798198032908      3.4999701999999999
    33   1      51.962090090409887      17.820053577026272      3.4999701999999999
    34   1      53.320459595242681       18.25572847651307      3.4999701999999999
    35   1       53.62232473963553      19.649983855506491      3.4999701999999999
    36   1      52.565805891711605      20.608497420190901      3.4999701999999999
    37   1      52.867671036104454      22.002752799184321      3.4999701999999999
    38   1      54.226040540937262      22.438427698671148      3.4999701999999999
    39   1      54.527905685330111      23.832683077664541      3.4999701999999999
    40   1      53.471386837406172      24.791196642348979      3.4999701999999999
    41   1      53.773251981799021      26.185452021342343      3.4999701999999999
    42   1      55.131621486631829      26.621126920829141      3.4999701999999999
    43   1      55.433486631024678      28.015382299822562      3.4999701999999999
    44   1      54.376967783100739      28.973895864506972      3.4999701999999999
    45   1      54.678832927493588      30.368151243500392      3.4999701999999999
    46   1      56.037202432326396      30.803826142987219      3.4999701999999999
    47   1      56.339067576719245      32.198081521980612      3.4999701999999999
    48   1      55.282548728795305       33.15659508666505      3.4999701999999999
    49   1      55.584413873188154      34.550850465658385      3.4999701999999999
    50   1      56.942783378020962      34.986525365145212      3.4999701999999999
    51   1      50.754654660388354     0.56641802319651902      3.4999701999999999
    52   1      52.113024165221191      1.0020929226832891      3.4999701999999999
    53   1       52.41488930961404        2.39634830167671      3.4999701999999999
    54   1      51.358370461690086      3.3548618663611762      3.4999701999999999
    55   1      51.660235606082935      4.7491172453545687      3.4999701999999999
    56   1      53.018605110915772      5.1847921448413672      3.4999701999999999
    57   1      53.320470255308607      6.5790475238347312      3.4999701999999999
    58   1      52.263951407384653      7.5375610885192259      3.4999701999999999
    59   1      52.565816551777488      8.9318164675125615      3.4999701999999999
    60   1      53.924186056610324        9.36749136699936      3.4999701999999999
    61   1      54.226051201003173      10.761746745992781      3.4999701999999999
    62   1      53.169532353079219      11.720260310677247      3.4999701999999999
    63   1      53.471397497472068       13.11451568967064      3.4999701999999999
    64   1      54.829767002304905      13.550190589157438      3.4999701999999999
    65   1      55.131632146697754      14.944445968150831      3.4999701999999999
    66   1      54.075113298773786      15.902959532835297      3.4999701999999999
    67   1      54.376978443166621      17.297214911828632      3.4999701999999999
    68   1      55.735347947999472      17.732889811315431      3.4999701999999999
    69   1      56.037213092392321      19.127145190308852      3.4999701999999999
    70   1      54.980694244468339      20.085658754993261      3.4999701999999999
    71   1      55.282559388861202      21.479914133986682      3.4999701999999999
    72   1      56.640928893694038      21.915589033473509      3.4999701999999999
    73   1      56.942794038086888      23.309844412466902      3.4999701999999999
    74   1       55.88627519016292      24.268357977151339      3.4999701999999999
    75   1      56.188140334555769      25.662613356144703      3.4999701999999999
    76   1      57.546509839388605      26.098288255631502      3.4999701999999999
    77   1      57.848374983781454      27.492543634624923      3.4999701999999999
    78   1      56.791856135857486      28.451057199309361      3.4999701999999999
    79   1      57.093721280250335      29.845312578302753      3.4999701999999999
    80   1      58.452090785083172       30.28098747778958      3.4999701999999999
    81   1      58.753955929476021      31.675242856782972      3.4999701999999999
    82   1      57.697437081552053      32.633756421467439      3.4999701999999999
    83   1      57.999302225944902      34.028011800460746      3.4999701999999999
    84   1      59.357671730777739      34.463686699947573      3.4999701999999999
    85   1       53.16954301314513      0.0435793579988797      3.4999701999999999
    86   1      54.527912517977938     0.47925425748567818      3.4999701999999999
    87   1      54.829777662370802      1.8735096364790707      3.4999701999999999
    88   1      53.773258814446848      2.8320232011635369      3.4999701999999999
    89   1      54.075123958839697      4.2262785801569578      3.4999701999999999
    90   1      55.433493463672519      4.6619534796437563      3.4999701999999999
    91   1      55.735358608065368      6.0562088586371203      3.4999701999999999
    92   1      54.678839760141429      7.0147224233215866      3.4999701999999999
    93   1      54.980704904534264      8.4089778023149506      3.4999701999999999
    94   1      56.339074409367086      8.8446527018017491      3.4999701999999999
    95   1      56.640939553759935      10.238908080795142      3.4999701999999999
    96   1      55.584420705835996      11.197421645479608      3.4999701999999999
    97   1      55.886285850228845      12.591677024473029      3.4999701999999999
    98   1      57.244655355061653      13.027351923959827      3.4999701999999999
    99   1      57.546520499454502      14.421607302953191      3.4999701999999999
   100   1      56.490001651530562      15.380120867637658      3.4999701999999999
   101   1      56.791866795923383      16.774376246631022      3.4999701999999999
   102   1       58.15023630075622       17.21005114611782      3.4999701999999999
   103   1      58.452101445149069      18.604306525111213      3.4999701999999999
   104   1      57.395582597225129       19.56282008979565      3.4999701999999999
   105   1      57.697447741617978      20.957075468789071      3.4999701999999999
   106   1      59.055817246450786      21.392750368275898      3.4999701999999999
   107   1      59.357682390843635      22.787005747269262      3.4999701999999999
   108   1      58.301163542919696      23.745519311953728      3.4999701999999999
   109   1      58.603028687312545      25.139774690947092      3.4999701999999999
   110   1      59.961398192145353      25.575449590433863      3.4999701999999999
   111   1      60.263263336538202      26.969704969427283      3.4999701999999999
   112   1      59.206744488614262      27.928218534111721      3.4999701999999999
   113   1      59.508609633007111      29.322473913105142      3.4999701999999999
   114   1       60.86697913783992      29.758148812591941      3.4999701999999999
   115   1      61.168844282232769      31.152404191585333      3.4999701999999999
   116   1      60.112325434308829      32.110917756269799      3.4999701999999999
   117   1       60.41419057870165      33.505173135263135      3.4999701999999999
   118   1      61.772560083534486      33.940848034749962      3.4999701999999999
   119   1      57.244666015127549      1.3506709712814597      3.4999701999999999
   120   1       56.18814716720361      2.3091845359658976      3.4999701999999999
   121   1      56.490012311596459      3.7034399149593185      3.4999701999999999
   122   1      57.848381816429267       4.139114814446117      3.4999701999999999
   123   1      58.150246960822116       5.533370193439481      3.4999701999999999
   124   1      57.093728112898177      6.4918837581239472      3.4999701999999999
   125   1      57.395593257291026      7.8861391371173113      3.4999701999999999
   126   1      58.753962762123834      8.3218140366041098      3.4999701999999999
   127   1      59.055827906516683      9.7160694155975307      3.4999701999999999
   128   1      57.999309058592743      10.674582980281969      3.4999701999999999
   129   1      58.301174202985592      12.068838359275389      3.4999701999999999
   130   1      59.659543707818401      12.504513258762188      3.4999701999999999
   131   1       59.96140885221125       13.89876863775558      3.4999701999999999
   132   1       58.90489000428731      14.857282202440018      3.4999701999999999
   133   1      59.206755148680159      16.251537581433382      3.4999701999999999
   134   1      60.565124653512967      16.687212480920181      3.4999701999999999
   135   1      60.866989797905816      18.081467859913602      3.4999701999999999
   136   1      59.810470949981877      19.039981424598011      3.4999701999999999
   137   1      60.112336094374726      20.434236803591432      3.4999701999999999
   138   1      61.470705599207562      20.869911703078259      3.4999701999999999
   139   1      61.772570743600383      22.264167082071651      3.4999701999999999
   140   1      60.716051895676443      23.222680646756089      3.4999701999999999
   141   1      61.017917040069293      24.616936025749453      3.4999701999999999
   142   1      62.376286544902101      25.052610925236252      3.4999701999999999
   143   1       62.67815168929495      26.446866304229673      3.4999701999999999
   144   1       61.62163284137101      27.405379868914082      3.4999701999999999
   145   1      61.923497985763859      28.799635247907503      3.4999701999999999
   146   1      63.281867490596696       29.23531014739433      3.4999701999999999
   147   1      63.583732634989516      30.629565526387722      3.4999701999999999
   148   1      62.527213787065577       31.58807909107216      3.4999701999999999
   149   1      62.829078931458426      32.982334470065496      3.4999701999999999
   150   1      64.187448436291234      33.418009369552323      3.4999701999999999
   151   1      64.489313580684083      34.812264748545715      3.4999701999999999
   152   1      59.659554367884326     0.82783230608382041      3.4999701999999999
   153   1      58.603035519960414      1.7863458707682582      3.4999701999999999
   154   1      58.904900664353264      3.1806012497616791      3.4999701999999999
   155   1      60.263270169186043      3.6162761492484776      3.4999701999999999
   156   1      60.565135313578892      5.0105315282418417      3.4999701999999999
   157   1      59.508616465654981      5.9690450929263079      3.4999701999999999
   158   1       59.81048161004783       7.363300471919672      3.4999701999999999
   159   1       61.16885111488061      7.7989753714064705      3.4999701999999999
   160   1      61.470716259273459      9.1932307503998913      3.4999701999999999
   161   1      60.414197411349548      10.151744315084358      3.4999701999999999
   162   1      60.716062555742397       11.54599969407775      3.4999701999999999
   163   1      62.074432060575177      11.981674593564549      3.4999701999999999
   164   1      62.376297204968026      13.375929972557941      3.4999701999999999
   165   1      61.319778357044115      14.334443537242379      3.4999701999999999
   166   1      61.621643501436964      15.728698916235743      3.4999701999999999
   167   1      62.980013006269743      16.164373815722541      3.4999701999999999
   168   1      63.281878150662592      17.558629194715962      3.4999701999999999
   169   1      62.225359302738681      18.517142759400372      3.4999701999999999
   170   1       62.52722444713153      19.911398138393793      3.4999701999999999
   171   1       63.88559395196431      20.347073037880619      3.4999701999999999
   172   1      64.187459096357159      21.741328416874012      3.4999701999999999
   173   1      63.130940248433248       22.69984198155845      3.4999701999999999
   174   1      63.432805392826097      24.094097360551814      3.4999701999999999
   175   1      64.791174897658877      24.529772260038612      3.4999701999999999
   176   1      65.093040042051726      25.924027639032033      3.4999701999999999
   177   1      64.036521194127815      26.882541203716443      3.4999701999999999
   178   1      64.338386338520664      28.276796582709864      3.4999701999999999
   179   1      65.696755843353444       28.71247148219669      3.4999701999999999
   180   1      65.998620987746293      30.106726861190083      3.4999701999999999
   181   1      64.942102139822381      31.065240425874521      3.4999701999999999
   182   1      65.243967284215231      32.459495804867856      3.4999701999999999
   183   1       66.60233678904801      32.895170704354683      3.4999701999999999
   184   1      66.904201933440859      34.289426083348076      3.4999701999999999
   185   1      62.074442720641073      0.3049936408862095      3.4999701999999999
   186   1      61.017923872717134      1.2635072055706473      3.4999701999999999
   187   1      61.319789017109983      2.6577625845640682      3.4999701999999999
   188   1      62.678158521942791      3.0934374840508667      3.4999701999999999
   189   1       62.98002366633564      4.4876928630442308      3.4999701999999999
   190   1      61.923504818411701       5.446206427728697      3.4999701999999999
   191   1      62.225369962804521      6.8404618067220611      3.4999701999999999
   192   1      63.583739467637358      7.2761367062088596      3.4999701999999999
   193   1      63.885604612030207      8.6703920852022804      3.4999701999999999
   194   1      62.829085764106267      9.6289056498867183      3.4999701999999999
   195   1      63.130950908499116      11.023161028880139      3.4999701999999999
   196   1      64.489320413331924      11.458835928366938      3.4999701999999999
   197   1      64.791185557724774       12.85309130736033      3.4999701999999999
   198   1      63.734666709800834      13.811604872044768      3.4999701999999999
   199   1      64.036531854193655      15.205860251038132      3.4999701999999999
   200   1      65.394901359026491       15.64153515052493      3.4999701999999999
   201   1       65.69676650341934      17.035790529518351      3.4999701999999999
   202   1      64.640247655495401      17.994304094202761      3.4999701999999999
   203   1       64.94211279988825      19.388559473196182      3.4999701999999999
   204   1      66.300482304721058      19.824234372683009      3.4999701999999999
   205   1      66.602347449113907      21.218489751676401      3.4999701999999999
   206   1      65.545828601189967      22.177003316360839      3.4999701999999999
   207   1      65.847693745582788      23.571258695354203      3.4999701999999999
   208   1      67.206063250415625      24.006933594841001      3.4999701999999999
   209   1      67.507928394808474      25.401188973834422      3.4999701999999999
   210   1      66.451409546884534      26.359702538518832      3.4999701999999999
   211   1      66.753274691277383      27.753957917512253      3.4999701999999999
   212   1      68.111644196110191       28.18963281699908      3.4999701999999999
   213   1       68.41350934050304      29.583888195992472      3.4999701999999999
   214   1      67.356990492579101       30.54240176067691      3.4999701999999999
   215   1      67.658855636971921      31.936657139670245      3.4999701999999999
   216   1      69.017225141804758      32.372332039157072      3.4999701999999999
   217   1      69.319090286197607      33.766587418150465      3.4999701999999999
   218   1      68.262571438273667      34.725100982834903      3.4999701999999999
   219   1       63.43281222547391       0.740668540373008      3.4999701999999999
   220   1      63.734677369866759      2.1349239193664289      3.4999701999999999
   221   1      65.093046874699567      2.5705988188532274      3.4999701999999999
   222   1      65.394912019092388      3.9648541978465914      3.4999701999999999
   223   1      64.338393171168505      4.9233677625310577      3.4999701999999999
   224   1      64.640258315561326      6.3176231415244217      3.4999701999999999
   225   1      65.998627820394134      6.7532980410112202      3.4999701999999999
   226   1      66.300492964786983      8.1475534200046411      3.4999701999999999
   227   1      65.243974116863043      9.1060669846890789      3.4999701999999999
   228   1      65.545839261255892        10.5003223636825      3.4999701999999999
   229   1      66.904208766088701      10.935997263169298      3.4999701999999999
   230   1       67.20607391048155      12.330252642162691      3.4999701999999999
   231   1      66.149555062557639      13.288766206847129      3.4999701999999999
   232   1      66.451420206950459      14.683021585840493      3.4999701999999999
   233   1      67.809789711783267      15.118696485327291      3.4999701999999999
   234   1      68.111654856176116      16.512951864320712      3.4999701999999999
   235   1      67.055136008252177      17.471465429005121      3.4999701999999999
   236   1      67.357001152645026      18.865720807998542      3.4999701999999999
   237   1      68.715370657477834      19.301395707485369      3.4999701999999999
   238   1      69.017235801870683      20.695651086478762      3.4999701999999999
   239   1      67.960716953946772        21.6541646511632      3.4999701999999999
   240   1      68.262582098339593      23.048420030156564      3.4999701999999999
   241   1      69.620951603172401      23.484094929643362      3.4999701999999999
   242   1       69.92281674756525      24.878350308636783      3.4999701999999999
   243   1       68.86629789964131      25.836863873321192      3.4999701999999999
   244   1      69.168163044034159      27.231119252314613      3.4999701999999999
   245   1      69.771878845335905       30.01956309547927      3.4999701999999999
   246   1      70.073743989728726      31.413818474472606      3.4999701999999999
   247   1      65.847700578230629     0.21782987517539709      3.4999701999999999
   248   1      66.149565722623478       1.612085254168818      3.4999701999999999
   249   1      67.507935227456315      2.0477601536556165      3.4999701999999999
   250   1      67.809800371849136      3.4420155326489805      3.4999701999999999
   251   1      66.753281523925196      4.4005290973334468      3.4999701999999999
   252   1      67.055146668318045      5.7947844763268108      3.4999701999999999
   253   1      68.413516173150853      6.2304593758136093      3.4999701999999999
   254   1      68.715381317543702      7.6247147548070302      3.4999701999999999
   255   1      67.658862469619763       8.583228319491468      3.4999701999999999
   256   1      67.960727614012612      9.9774836984848889      3.4999701999999999
   257   1      69.319097118845448      10.413158597971687      3.4999701999999999
   258   1      69.620962263238269       11.80741397696508      3.4999701999999999
   259   1      68.564443415314329      12.765927541649518      3.4999701999999999
   260   1      68.866308559707178      14.160182920642882      3.4999701999999999
   261   1      69.470024361008896      16.948626763807511      3.4999701999999999
   262   1      69.771889505401745      18.342882142800931      3.4999701999999999
   263   1      68.564454075380283      1.0892465889711787      3.4999701999999999
   264   1      49.698307608990902      1.5249214884579771      3.4999701999999999
   265   1      69.168169876682001      3.8776904321358074      3.4999701999999999
   266   1       69.47003502107485      5.2719458111291715      3.4999701999999999
   267   1      49.849234851154407      8.0603896542938287      3.4999701999999999
   268   1      50.301844781118319      62.696693471869395      3.4999701999999999
   269   1      50.603709925511168      64.090948850862816      3.4999701999999999
   270   1        51.2074257268129      66.879392694027473      3.4999701999999999
   271   1      51.509290871205749      68.273648073020865      3.4999701999999999
   272   1      50.452772023281824      69.232161637705303      3.4999701999999999
   273   1      49.999990296791367      49.625757140197692      3.4999701999999999
   274   1      50.301855441184216      51.020012519191084      3.4999701999999999
   275   1      50.905571242485934      53.808456362355685      3.4999701999999999
   276   1      51.207436386878783      55.202711741349106      3.4999701999999999
   277   1      50.150917538954857      56.161225306033543      3.4999701999999999
   278   1      50.452782683347706      57.555480685026936      3.4999701999999999
   279   1      51.811152188180515      57.991155584513763      3.4999701999999999
   280   1      52.113017332573349      59.385410963507155      3.4999701999999999
   281   1      51.056498484649438      60.343924528191621      3.4999701999999999
   282   1      51.358363629042273      61.738179907184957      3.4999701999999999
   283   1      52.716733133875067      62.173854806671756      3.4999701999999999
   284   1      53.018598278267916      63.568110185665176      3.4999701999999999
   285   1      51.962079430343991      64.526623750349586      3.4999701999999999
   286   1       52.26394457473684      65.920879129343007      3.4999701999999999
   287   1      53.622314079569648      66.356554028829834      3.4999701999999999
   288   1      53.924179223962483      67.750809407823226      3.4999701999999999
   289   1      52.867660376038572      68.709322972507664      3.4999701999999999
   290   1      50.000000956857264      37.949076187519353      3.4999701999999999
   291   1      50.603716758158996       40.73752003068401      3.4999701999999999
   292   1       50.90558190255183      42.131775409677374      3.4999701999999999
   293   1       50.15092819902074      44.484544353355204      3.4999701999999999
   294   1      51.509297703853548      44.920219252842003      3.4999701999999999
   295   1      51.811162848246397      46.314474631835424      3.4999701999999999
   296   1      50.754644000322472      47.272988196519862      3.4999701999999999
   297   1      51.056509144715321      48.667243575513282      3.4999701999999999
   298   1      52.414878649548129      49.102918475000081      3.4999701999999999
   299   1      52.716743793940978      50.497173853993473      3.4999701999999999
   300   1      51.660224946017038      51.455687418677911      3.4999701999999999
   301   1      51.962090090409887      52.849942797671275      3.4999701999999999
   302   1      53.320459595242681      53.285617697158074      3.4999701999999999
   303   1       53.62232473963553      54.679873076151495      3.4999701999999999
   304   1      52.565805891711605      55.638386640835904      3.4999701999999999
   305   1      52.867671036104454      57.032642019829325      3.4999701999999999
   306   1      54.226040540937262      57.468316919316152      3.4999701999999999
   307   1      54.527905685330111      58.862572298309544      3.4999701999999999
   308   1      53.471386837406172      59.821085862993982      3.4999701999999999
   309   1      53.773251981799021      61.215341241987346      3.4999701999999999
   310   1      55.131621486631829      61.651016141474145      3.4999701999999999
   311   1      55.433486631024678      63.045271520467566      3.4999701999999999
   312   1      54.376967783100739      64.003785085151975      3.4999701999999999
   313   1      54.678832927493588      65.398040464145396      3.4999701999999999
   314   1      56.037202432326396      65.833715363632223      3.4999701999999999
   315   1      56.339067576719245      67.227970742625615      3.4999701999999999
   316   1      55.282548728795305      68.186484307310053      3.4999701999999999
   317   1      55.584413873188154      69.580739686303389      3.4999701999999999
   318   1      56.942783378020962      70.016414585790216      3.4999701999999999
   319   1      50.754654660388354      35.596307243841522      3.4999701999999999
   320   1      52.113024165221191      36.031982143328293      3.4999701999999999
   321   1       52.41488930961404      37.426237522321713      3.4999701999999999
   322   1      51.358370461690086       38.38475108700618      3.4999701999999999
   323   1      51.660235606082935      39.779006465999572      3.4999701999999999
   324   1      53.018605110915772      40.214681365486371      3.4999701999999999
   325   1      53.320470255308607      41.608936744479735      3.4999701999999999
   326   1      52.263951407384653      42.567450309164229      3.4999701999999999
   327   1      52.565816551777488      43.961705688157565      3.4999701999999999
   328   1      53.924186056610324      44.397380587644363      3.4999701999999999
   329   1      54.226051201003173      45.791635966637784      3.4999701999999999
   330   1      53.169532353079219      46.750149531322251      3.4999701999999999
   331   1      53.471397497472068      48.144404910315643      3.4999701999999999
   332   1      54.829767002304905      48.580079809802442      3.4999701999999999
   333   1      55.131632146697754      49.974335188795834      3.4999701999999999
   334   1      54.075113298773786        50.9328487534803      3.4999701999999999
   335   1      54.376978443166621      52.327104132473636      3.4999701999999999
   336   1      55.735347947999472      52.762779031960434      3.4999701999999999
   337   1      56.037213092392321      54.157034410953855      3.4999701999999999
   338   1      54.980694244468339      55.115547975638265      3.4999701999999999
   339   1      55.282559388861202      56.509803354631686      3.4999701999999999
   340   1      56.640928893694038      56.945478254118512      3.4999701999999999
   341   1      56.942794038086888      58.339733633111905      3.4999701999999999
   342   1       55.88627519016292      59.298247197796343      3.4999701999999999
   343   1      56.188140334555769      60.692502576789707      3.4999701999999999
   344   1      57.546509839388605      61.128177476276505      3.4999701999999999
   345   1      57.848374983781454      62.522432855269926      3.4999701999999999
   346   1      56.791856135857486      63.480946419954364      3.4999701999999999
   347   1      57.093721280250335      64.875201798947757      3.4999701999999999
   348   1      58.452090785083172      65.310876698434583      3.4999701999999999
   349   1      58.753955929476021      66.705132077427976      3.4999701999999999
   350   1      57.697437081552053      67.663645642112442      3.4999701999999999
   351   1      57.999302225944902      69.057901021105749      3.4999701999999999
   352   1      59.357671730777739      69.493575920592576      3.4999701999999999
   353   1       53.16954301314513      35.073468578643883      3.4999701999999999
   354   1      54.527912517977938      35.509143478130682      3.4999701999999999
   355   1      54.829777662370802      36.903398857124074      3.4999701999999999
   356   1      53.773258814446848       37.86191242180854      3.4999701999999999
   357   1      54.075123958839697      39.256167800801961      3.4999701999999999
   358   1      55.433493463672519       39.69184270028876      3.4999701999999999
   359   1      55.735358608065368      41.086098079282124      3.4999701999999999