data_tension.lmp (written by ASE) 

13399 	 atoms 
1  atom types
0.0      605.61289928055407  xlo xhi
0.0      80.703449450587073  ylo yhi
0.0                     100  zlo zhi


Atoms 

     1   1      51.755375566066505      28.822429936782669      3.4999700000000002
     2   1      52.065025441468656      30.032900975092023      3.4999700000000002
     3   1      52.648351786055684      32.953881624506572      3.4999700000000002
     4   1      53.319068072008896      34.079533337443365      3.4999700000000002
     5   1      51.058799609314022      15.667686972887525      3.4999700000000002
     6   1       51.37020576212408      16.878238714646329      3.4999700000000002
     7   1      52.037288370681608      19.774201294731196      3.4999700000000002
     8   1      52.268935304656416       21.13163331449007      3.4999700000000002
     9   1      51.394127471645653      22.234445951232342      3.4999700000000002
    10   1      51.706381482514715      23.444916989541699      3.4999700000000002
    11   1      53.005845080500997      23.981837038736455      3.4999700000000002
    12   1      53.347229071825446      25.359283513959078      3.4999700000000002
    13   1      52.379035729745631       26.35137101805514      3.4999700000000002
    14   1       52.61625430239382      27.709045148162367      3.4999700000000002
    15   1      54.024364854511035      28.144036740701029      3.4999700000000002
    16   1      54.373137323206706      29.535364209229154      3.4999700000000002
    17   1      53.365034091064295      30.568126251848319      3.4999700000000002
    18   1       53.68183019867795      31.945088506374233      3.4999700000000002
    19   1       55.06662465417287      32.332949284433759      3.4999700000000002
    20   1      55.442165213016736      33.764224960439918      3.4999700000000002
    21   1      54.406506593957069      34.787141182226108      3.4999700000000002
    22   1      50.711601734156481      3.7567052202001028      3.4999700000000002
    23   1      51.375656278217605      6.6504081037003537      3.4999700000000002
    24   1      51.606152547683784      8.0072751993130744      3.4999700000000002
    25   1      51.039419996537042      10.317855308808106      3.4999700000000002
    26   1      52.339973697742025      10.852192847620444      3.4999700000000002
    27   1      52.680267585847773      12.227460329707899      3.4999700000000002
    28   1      51.705049134136303      13.209944123319344      3.4999700000000002
    29   1      51.935727087472259      14.566972625830966      3.4999700000000002
    30   1      53.344806620228326        15.0044660253026      3.4999700000000002
    31   1       53.68491882446429       16.39417942484171      3.4999700000000002
    32   1      52.670335534299575      17.413463991402622      3.4999700000000002
    33   1      53.010811106275099      18.789377101085684      3.4999700000000002
    34   1      54.389064942457779      19.191280279349606      3.4999700000000002
    35   1      54.711917179064251      20.580509458192015      3.4999700000000002
    36   1      53.678135959992346      21.568723196714451      3.4999700000000002
    37   1      54.019035460997365      22.959243630748066      3.4999700000000002
    38   1      55.399348381037605      23.360904698663635      3.4999700000000002
    39   1       55.74297314008939      24.752070760292856      3.4999700000000002
    40   1      54.726754695096623       25.75868488529003      3.4999700000000002
    41   1       55.05281668006927      27.148801802076392      3.4999700000000002
    42   1      56.431312761411668      27.540455642260088      3.4999700000000002
    43   1      56.774029101114529      28.930653262495902      3.4999700000000002
    44   1      55.745637836846228      29.929600559795272      3.4999700000000002
    45   1      56.083933202384344      31.325608828391523      3.4999700000000002
    46   1      57.458916728910914      31.690872640604884      3.4999700000000002
    47   1      57.828825087791479       33.09470914379785      3.4999700000000002
    48   1       56.79673958483756      34.032321819514763      3.4999700000000002
    49   1      55.240374994976463      45.939147344555479      3.4999700000000002
    50   1      56.592042424880724      46.268256011414977      3.4999700000000002
    51   1      51.274579485327678      1.4430180279012221      3.4999700000000002
    52   1      52.684082947113239      1.8864754122872531      3.4999700000000002
    53   1      53.025709183597399      3.2741792959350429      3.4999700000000002
    54   1      52.011065332142763      4.2937382542240892      3.4999700000000002
    55   1      52.351359220248504      5.6685376563047303      3.4999700000000002
    56   1      53.729068004821841      6.0723454359756879      3.4999700000000002
    57   1      54.051011822079381      7.4608482837730383      3.4999700000000002
    58   1      53.015232080439851       8.445051060857784      3.4999700000000002
    59   1      53.355041478226163      9.8343609431496386      3.4999700000000002
    60   1      54.734748785367124      10.239653666290486      3.4999700000000002
    61   1      55.077162318620346      11.630012693425204      3.4999700000000002
    62   1      54.058036931711037      12.630412652814679      3.4999700000000002
    63   1      54.380041310258498      14.019076907510932      3.4999700000000002
    64   1      55.757386727092268      14.418881796089138      3.4999700000000002
    65   1      56.094591989411683        15.8086758990777      3.4999700000000002
    66   1        55.0647472541851      16.798261596240799      3.4999700000000002
    67   1      55.407342471308105      18.188943437173315      3.4999700000000002
    68   1       56.77923737204835      18.589393953347127      3.4999700000000002
    69   1      57.115110285989338      19.982658304662063      3.4999700000000002
    70   1      56.089686524927508      20.978216057084506      3.4999700000000002
    71   1      56.427739645305913      22.368252270421419      3.4999700000000002
    72   1      57.802904855702266      22.763134248583139      3.4999700000000002
    73   1      58.143077621228151      24.152202020526644      3.4999700000000002
    74   1      57.116018705338263      25.148001883297436      3.4999700000000002
    75   1      57.454859122485736       26.54078201391567      3.4999700000000002
    76   1      58.830932752231007       26.92840068162684      3.4999700000000002
    77   1      59.176313788690706      28.317226343221993      3.4999700000000002
    78   1      58.149739363120247      29.312622688745531      3.4999700000000002
    79   1       58.49294019314253       30.70209397793629      3.4999700000000002
    80   1      59.865380145492125       31.08583888007383      3.4999700000000002
    81   1      60.224690278635272      32.501215976538234      3.4999700000000002
    82   1      59.180189711246108      33.419621231285916      3.4999700000000002
    83   1      57.645324379309464      45.358324618859605      3.4999700000000002
    84   1      58.996507318894309      45.690822830596026      3.4999700000000002
    85   1      53.723980856467882     0.90557340628503757      3.4999700000000002
    86   1      55.101810763621067      1.3088324024997313      3.4999700000000002
    87   1      55.438773780780771      2.6976096420252138      3.4999700000000002
    88   1      54.405719297187993      3.6823047101516062      3.4999700000000002
    89   1      54.748375075600933      5.0726718076312665      3.4999700000000002
    90   1      56.119967169891531      5.4771010038629928      3.4999700000000002
    91   1      56.455295032223177      6.8701313151745218      3.4999700000000002
    92   1      55.428236116333288      7.8620493420267428      3.4999700000000002
    93   1      55.765320256072847      9.2517627415658517      3.4999700000000002
    94   1      57.139395363250486      9.6516483335935117      3.4999700000000002
    95   1      57.477872412658392      11.041200326233719      3.4999700000000002
    96   1      56.448633290331095      12.032319388936378      3.4999700000000002
    97   1      56.783900591372813      13.425503036801864      3.4999700000000002
    98   1       58.15821794371017      13.823290339143806      3.4999700000000002
    99   1      58.498027341496488      15.213487959379622      3.4999700000000002
   100   1      57.468969903038975      16.206947422116347      3.4999700000000002
   101   1      57.807749758896513      17.596418711307106      3.4999700000000002
   102   1      59.180977008015169      17.994125310199596      3.4999700000000002
   103   1      59.519999109032419      19.384161523536509      3.4999700000000002
   104   1      58.490033251225981       20.37778239317214      3.4999700000000002
   105   1      58.830932752231007      21.767495792711248      3.4999700000000002
   106   1      60.204583930379158      22.162216363974068      3.4999700000000002
   107   1      60.546452412023029       23.55104202556922      3.4999700000000002
   108   1      59.517576657435306      24.545066412452101      3.4999700000000002
   109   1      59.859566261659033      25.934053480946158      3.4999700000000002
   110   1      61.233520246256823      26.326110838377108      3.4999700000000002
   111   1      61.578113985947461      27.715259313770062      3.4999700000000002
   112   1      60.549662160389218      28.707346817866128      3.4999700000000002
   113   1      60.894982635558996      30.099319913989859      3.4999700000000002
   114   1      62.267301465328728      30.483064816127399      3.4999700000000002
   115   1      62.622796237206408        31.8994103539852      3.4999700000000002
   116   1      61.579325211746017      32.820075305317502      3.4999700000000002
   117   1      60.048275241074855      44.779519479400001      3.4999700000000002
   118   1      61.400063793558978      45.110484325596858      3.4999700000000002
   119   1      57.845782248971332      2.1106211727913138      3.4999700000000002
   120   1      56.813212255697984      3.0992545692508955      3.4999700000000002
   121   1      57.150841447046894      4.4881690046404437      3.4999700000000002
   122   1      58.523705328425983      4.8894588366885428      3.4999700000000002
   123   1      58.861455642354741      6.2795676831299607      3.4999700000000002
   124   1      57.829612384560541      7.2697102340942683      3.4999700000000002
   125   1      58.169179537187148       8.659802939845795      3.4999700000000002
   126   1      59.541740612116598      9.0597692353229053      3.4999700000000002
   127   1       59.88124720345327      10.449644041760918      3.4999700000000002
   128   1      58.850675732747554      11.441005214811927      3.4999700000000002
   129   1      59.188910536995742      12.831364241946641      3.4999700000000002
   130   1      60.561289928055409      13.229958578783091      3.4999700000000002
   131   1      60.901644377451078        14.6195105714233      3.4999700000000002
   132   1       59.87083066158565      15.611517372069915      3.4999700000000002
   133   1      60.210882304531673      17.001230771609023      3.4999700000000002
   134   1      61.583564502040986      17.398291742905911      3.4999700000000002
   135   1      61.923918951436647      18.787440218298869      3.4999700000000002
   136   1      60.893165796861147      19.780092646541089      3.4999700000000002
   137   1       61.23473147205538       21.16899901158569      3.4999700000000002
   138   1      62.607655914724397      21.564284506994667      3.4999700000000002
   139   1      62.949827202817907      22.952625947893118      3.4999700000000002
   140   1      61.919679661141693       23.94519767268589      3.4999700000000002
   141   1      62.262456562134481      25.333700520483241      3.4999700000000002
   142   1      63.635986617702784      25.726887726206499      3.4999700000000002
   143   1      63.980580357393421      27.115874794700556      3.4999700000000002
   144   1      62.951038428616471      28.106671043605413      3.4999700000000002
   145   1      63.296843394105672      29.498482732830233      3.4999700000000002
   146   1      64.667950998076847      29.884325924653492      3.4999700000000002
   147   1      65.021628931256686      31.301317090106899      3.4999700000000002
   148   1      63.976946679997731      32.220367972450184      3.4999700000000002
   149   1      62.451407786710021      44.198373939906318      3.4999700000000002
   150   1      63.803135777904217      44.528451048159219      3.4999700000000002
   151   1      64.146518291796284      45.947782613646694      3.4999700000000002
   152   1      60.249399284925921      1.5202996510951043      3.4999700000000002
   153   1      59.217858833581353      2.5106439606830384      3.4999700000000002
   154   1      59.555911953959757      3.9001394609086319      3.4999700000000002
   155   1      60.927685732120146      4.3000008419014559      3.4999700000000002
   156   1      61.266223342817973      5.6895528345416633      3.4999700000000002
   157   1      60.233895594704343      6.6796146820565214      3.4999700000000002
   158   1      60.573402186041015      8.0692231671113444      3.4999700000000002
   159   1      61.945721015810754      8.4685357646479034      3.4999700000000002
   160   1      62.284864239407867      9.8579263503892101      3.4999700000000002
   161   1      61.253505471933082      10.848803302743519      3.4999700000000002
   162   1      61.592648695530194      12.238435998833179      3.4999700000000002
   163   1      62.965573138199211      12.636707521871825      3.4999700000000002
   164   1      63.305321974695595      14.025775293815331      3.4999700000000002
   165   1      62.273963207220817       15.01721717031579      3.4999700000000002
   166   1      62.614317656616485      16.406284942259298      3.4999700000000002
   167   1      63.987242099285503      16.803345913556186      3.4999700000000002
   168   1      64.327596548681171      18.192010168252438      3.4999700000000002
   169   1      63.296843394105672       19.18369415510125      3.4999700000000002
   170   1      63.638409069299897      20.572116299449153      3.4999700000000002
   171   1      65.011333511968914      20.967966719004284      3.4999700000000002
   172   1      65.353504800062424      22.355985346104926      3.4999700000000002
   173   1       64.32335725838621      23.347507926054838      3.4999700000000002
   174   1      64.666134159378998      24.735768663503841      3.4999700000000002
   175   1      66.039058602048016      25.130085717519407      3.4999700000000002
   176   1      66.382441115940097      26.519153489462916      3.4999700000000002
   177   1      65.352899187163146      27.508819890075465      3.4999700000000002
   178   1      65.698098539753062      28.900712282749737      3.4999700000000002
   179   1      67.069206143724244      29.288008136663102      3.4999700000000002
   180   1      67.421067238206234      30.705322115914317      3.4999700000000002
   181   1       66.37517376114873      31.623485260313643      3.4999700000000002
   182   1      64.853874158155975      43.615775738322526      3.4999700000000002
   183   1      66.206207762249448      43.945126515530369      3.4999700000000002
   184   1      66.550195889040808      45.364296674118954      3.4999700000000002
   185   1      62.653076882170446     0.93008304388318086      3.4999700000000002
   186   1      61.621112501796375      1.9202255948474889      3.4999700000000002
   187   1      61.959650112494202      3.3097937281775871      3.4999700000000002
   188   1      63.331363329364663      3.7093807174422788      3.4999700000000002
   189   1      63.670506552961776      5.0987470921487494      3.4999700000000002
   190   1      62.638542172587705      6.0889299948377849      3.4999700000000002
   191   1      62.977685396184818      7.4782237364397499      3.4999700000000002
   192   1      64.350004225954549      7.8771570277638929      3.4999700000000002
   193   1      64.689147449551655      9.2662086590175061      3.4999700000000002
   194   1      63.657183069177599      10.256682094124562      3.4999700000000002
   195   1      63.996931905673989      11.645830569517516      3.4999700000000002
   196   1      65.369250735443728      12.043940685657264      3.4999700000000002
   197   1      65.709605184839404      13.432685643802968      3.4999700000000002
   198   1      64.678246417364619      14.423401189258371      3.4999700000000002
   199   1      65.018600866760281      15.812146147404075      3.4999700000000002
   200   1       66.39091969653002      16.209368525599867      3.4999700000000002
   201   1      66.731879758824974      17.597629263048862      3.4999700000000002
   202   1      65.700520991350189       18.58858691885262      3.4999700000000002
   203   1      66.042086666544421      19.976766952852174      3.4999700000000002
   204   1      67.415011109213438      20.373182296553452      3.4999700000000002
   205   1      67.757182397306948      21.761039516755197      3.4999700000000002
   206   1      66.726429242731442      22.751755062210609      3.4999700000000002
   207   1      67.069206143724244      24.139854392760704      3.4999700000000002
   208   1      68.441524973493983      24.535059184720229      3.4999700000000002
   209   1       68.78490748738605      25.924207660113186      3.4999700000000002
   210   1      67.754759945709836      26.913147729680681      3.4999700000000002
   211   1      68.099959298299751      28.305201529253857      3.4999700000000002
   212   1      69.469855676472363      28.693465824560633      3.4999700000000002
   213   1      69.821111158055075      30.111021914160194      3.4999700000000002
   214   1      68.774612068098278      31.028458727514469      3.4999700000000002
   215   1      67.256946142501221       43.03204768844644      3.4999700000000002
   216   1      68.609279746594694      43.360833541508129      3.4999700000000002
   217   1      68.953873486285332      44.779922996647244      3.4999700000000002
   218   1      67.918881041414863      45.758371617786167      3.4999700000000002
   219   1      64.024790099040899      1.3299605655658948      3.4999700000000002
   220   1      64.363327709738726      2.7193188699274216      3.4999700000000002
   221   1      65.735646539508465       3.118809015052773      3.4999700000000002
   222   1      66.074789763105571      4.5079332794108931      3.4999700000000002
   223   1      65.042219769832229      5.4979063531313539      3.4999700000000002
   224   1      65.381968606328613      6.8869741250748593      3.4999700000000002
   225   1      66.754287436098352      7.2857782908798798      3.4999700000000002
   226   1      67.093430659695457      8.6745716710952525      3.4999700000000002
   227   1      66.061466279321394      9.6647222924045053      3.4999700000000002
   228   1      66.401215115817791      11.053467250550209      3.4999700000000002
   229   1      67.774139558486809      11.451658070139404      3.4999700000000002
   230   1      68.113888394983192      12.840080214487303      3.4999700000000002
   231   1      67.082529627508421      13.830392242695458      3.4999700000000002
   232   1      67.422884076904083      15.218733683593909      3.4999700000000002
   233   1      68.795202906673822      15.616278875587501      3.4999700000000002
   234   1      69.136162968968776      17.004297502688146      3.4999700000000002
   235   1      68.104804201493991      17.994690234345754      3.4999700000000002
   236   1      68.446369876688223      19.382628157996947      3.4999700000000002
   237   1      69.818688706457962      19.779608425844387      3.4999700000000002
   238   1      70.160859994551473       21.16738494259668      3.4999700000000002
   239   1      69.130106839975966      22.157454860456486      3.4999700000000002
   240   1      69.472278128069476      23.545554191006584      3.4999700000000002
   241   1      70.844596957839215       23.94148531401116      3.4999700000000002
   242   1      71.187373858832004      25.330714492853566      3.4999700000000002
   243   1      70.157226317155789      26.319089638274907      3.4999700000000002
   244   1      70.501214443947148      27.711224141297532      3.4999700000000002
   245   1      71.174655987947119      30.434804153355948      3.4999700000000002
   246   1      69.659412513947174       42.44751260407584      3.4999700000000002
   247   1      66.428467696285409     0.73987146980410312      3.4999700000000002
   248   1      66.767610919882529      2.1290054185761575      3.4999700000000002
   249   1      68.139324136752975      2.5284552119767834      3.4999700000000002
   250   1      68.479072973249373      3.9173454363314968      3.4999700000000002
   251   1      67.446502979976017       4.907036047978881      3.4999700000000002
   252   1      67.786251816472415      6.2958859206088693      3.4999700000000002
   253   1      69.158570646242154      6.6946900864138899      3.4999700000000002
   254   1      69.498319482738538      8.0832574969708002      3.4999700000000002
   255   1      68.465749489465196      9.0730853044822499      3.4999700000000002
   256   1      68.806103938860872      10.461588152279603      3.4999700000000002
   257   1      70.178422768630611      10.859859675318249      3.4999700000000002
   258   1      70.518777218026287      12.248120412767248      3.4999700000000002
   259   1      69.486812837652224        13.2379482202787      3.4999700000000002
   260   1      69.827167287047885      14.626128254278248      3.4999700000000002
   261   1      70.509087411637793      17.401681287782839      3.4999700000000002
   262   1      70.850047473932733      18.789538507984584      3.4999700000000002
   263   1      69.171894130026331      1.5389582886080801      3.4999700000000002
   264   1      50.399044916837781      2.5461615487862419      3.4999700000000002
   265   1      69.851391803019112      4.3164562752444304      3.4999700000000002
   266   1      70.190535026616217      5.7051124595957372      3.4999700000000002
   267   1      50.728377211466544      9.1072228635998496      3.4999700000000002
   268   1      50.770467307966541      74.330943675069818      3.4999700000000002
   269   1      51.080359428528403      75.542221747873683      3.4999700000000002
   270   1      51.759857101521185      78.439314176250846      3.4999700000000002
   271   1      52.011368138592402      79.804090209909717      3.4999700000000002
   272   1      51.032516009485242    0.088970710812305218      3.4999700000000002
   273   1       50.11743491867233       61.20945053234832      3.4999700000000002
   274   1      50.427266477944251      62.420486494803825      3.4999700000000002
   275   1       51.09053372523632      65.314512192101873      3.4999700000000002
   276   1       51.32054550438307      66.671621398062939      3.4999700000000002
   277   1      50.442285677846414      67.771205896827183      3.4999700000000002
   278   1      50.752843972597482      68.981919045484915      3.4999700000000002
   279   1      52.053215989932681      69.516660101544502      3.4999700000000002
   280   1       52.39320707158879      70.891766176733043      3.4999700000000002
   281   1      51.417201323108245      71.873281528951082      3.4999700000000002
   282   1      51.647334224834857      73.230310031462707      3.4999700000000002
   283   1      53.056716564040563      73.667642024035445      3.4999700000000002
   284   1      53.396889329566449      75.056629092529491      3.4999700000000002
   285   1      52.381094813603184      76.075510141843168      3.4999700000000002
   286   1      52.724840695234818        77.4486793342449      3.4999700000000002
   287   1      54.104729686245562      77.845982415890148      3.4999700000000002
   288   1      54.434304226034044      79.233839636091886      3.4999700000000002
   289   1      53.407426994013932      80.221649857367069      3.4999700000000002
   290   1        49.6793951086227      49.395272567276876      3.4999700000000002
   291   1      50.453428955193175      52.178088911232017      3.4999700000000002
   292   1      50.679322566624819      53.537296406878802      3.4999700000000002
   293   1      50.105262099396782      55.849450233638123      3.4999700000000002
   294   1      51.403332787714724      56.391293193249368      3.4999700000000002
   295   1      51.741143662933418      57.769143185719244      3.4999700000000002
   296   1      50.766167456381652      58.751949793128496      3.4999700000000002
   297   1      50.995694745208986      60.109704626685165      3.4999700000000002
   298   1       52.40392641990605      60.550587571033724      3.4999700000000002
   299   1      52.742827398343458      61.940704487820085      3.4999700000000002
   300   1      51.726851198510396      62.957325840549132      3.4999700000000002
   301   1      52.066418351137003      64.332996839883833      3.4999700000000002
   302   1      53.443945451840548      64.738128156125782      3.4999700000000002
   303   1      53.765525901358529       66.12687311427149      3.4999700000000002
   304   1      52.729322230689498      67.110244645826882      3.4999700000000002
   305   1      53.068768260736249      68.499635231568192      3.4999700000000002
   306   1      54.448354445297355      68.905815692653007      3.4999700000000002
   307   1      54.790646855970714      70.296013312888817      3.4999700000000002
   308   1      53.770855294872199      71.295202720536537      3.4999700000000002
   309   1      54.092738550839805      72.683382754536083      3.4999700000000002
   310   1      55.470265651543357      73.083510456912094      3.4999700000000002
   311   1      55.807894842892267      74.472497525406141      3.4999700000000002
   312   1      54.777444494766407      75.459742822535176      3.4999700000000002
   313   1      55.121977673167109      76.848891297928134      3.4999700000000002
   314   1      56.493872573907353      77.251117289989864      3.4999700000000002
   315   1      56.831804571705902      78.642606165416893      3.4999700000000002
   316   1       55.80595688161457      79.635904221254705      3.4999700000000002
   317   1      56.135289176243333     0.32250147545297453      3.4999700000000002
   318   1      57.508879793101556     0.72170673740176494      3.4999700000000002
   319   1      50.378999129871602      46.954316035194417      3.4999700000000002
   320   1      51.769001856300328      47.378735475855052      3.4999700000000002
   321   1      52.103724105732688      48.817435869210669      3.4999700000000002
   322   1      51.061040377041358      49.804681166339705      3.4999700000000002
   323   1      51.424832045639178      51.191166427900789      3.4999700000000002
   324   1      52.800663430224745      51.605982158076806      3.4999700000000002
   325   1      53.118065150737685      53.000053543886246      3.4999700000000002
   326   1      52.083557196186646      53.983182965093292      3.4999700000000002
   327   1      52.421004703665766      55.376205206059886      3.4999700000000002
   328   1      53.798834610818957      55.788841943100728      3.4999700000000002
   329   1      54.139794673113904      57.180815039224456      3.4999700000000002
   330   1      53.118549641057108      58.177744750287566      3.4999700000000002
   331   1      53.440069529285154       59.56745814982667      3.4999700000000002
   332   1      54.816930455799501      59.972589466068612      3.4999700000000002
   333   1      55.153590666509558      61.362948493203334      3.4999700000000002
   334   1      54.122110776454917      62.348983238590606      3.4999700000000002
   335   1      54.464039819388717       63.73974578297257      3.4999700000000002
   336   1      55.835147423359892      64.145280616461761      3.4999700000000002
   337   1      56.170233040531819      65.538625671226157      3.4999700000000002
   338   1      55.142568511742645      66.529341216681559      3.4999700000000002
   339   1      55.479470967612421      67.919054616220677      3.4999700000000002
   340   1      56.853424952210219      68.320554277237335      3.4999700000000002
   341   1      57.192023124197974      69.710025566428101      3.4999700000000002
   342   1      56.162117827681463      70.699449856692311      3.4999700000000002
   343   1      56.497566812592957      72.092149283861076      3.4999700000000002
   344   1      57.871702481060538      72.491873468989851      3.4999700000000002
   345   1      58.211935807876358      73.881586868528956      3.4999700000000002
   346   1      57.182272756519559      74.872383117433799      3.4999700000000002
   347   1      57.522142715595805      76.261128075579506      3.4999700000000002
   348   1       58.89440098407561      76.662547033146737      3.4999700000000002
   349   1      59.233483646382794      78.052502543034194      3.4999700000000002
   350   1        58.2033966659965      79.043056681590699      3.4999700000000002
   351   1      58.539330141227424      80.433738522523228      3.4999700000000002
   352   1      59.911164480677733     0.13050796921002789      3.4999700000000002
   353   1      52.842935210594526       46.50907510457553      3.4999700000000002
   354   1       54.19357309857002      46.854163054426238      3.4999700000000002
   355   1      54.519816767412458      48.268813819845583      3.4999700000000002
   356   1      53.475861251632637      49.228377833813056      3.4999700000000002
   357   1      53.824209791298813      50.622045702375253      3.4999700000000002
   358   1      55.195317395269988      51.034682439416102      3.4999700000000002
   359   1      55.527374947945518      52.430125783866202      3.4999700000000002