ITEM: TIMESTEP
100
ITEM: NUMBER OF ATOMS
13399
ITEM: BOX BOUNDS pp pp pp
0.0000000000000000e+00 6.0561289928055407e+02
0.0000000000000000e+00 8.0703449450587073e+01
0.0000000000000000e+00 1.0000000000000000e+02
ITEM: ATOMS id type xs ys zs
51 1 0.0846666 0.0178719 0.0349997
264 1 0.083221 0.0315399 0.0349997
272 1 0.084267 0.00109536 0.0349997
52 1 0.086994 0.0233664 0.0349997
85 1 0.0887112 0.0112129 0.0349997
86 1 0.0909862 0.0162093 0.0349997
317 1 0.0926927 0.00398853 0.0349997
119 1 0.0955171 0.0261433 0.0349997
153 1 0.0977827 0.0310994 0.0349997
318 1 0.0949609 0.00893458 0.0349997
152 1 0.099486 0.0188289 0.0349997
186 1 0.101751 0.0237838 0.0349997
352 1 0.0989274 0.00160939 0.0349997
185 1 0.103455 0.0115158 0.0349997
219 1 0.10572 0.0164701 0.0349997
247 1 0.109689 0.0091585 0.0349997
248 1 0.110249 0.0263698 0.0349997
419 1 0.107424 0.00420478 0.0349997
249 1 0.112514 0.0313188 0.0349997
263 1 0.114219 0.0190588 0.0349997
486 1 0.113658 0.00185034 0.0349997
587 1 0.118189 0.0117515 0.0349997
588 1 0.120455 0.0167002 0.0349997
800 1 0.116484 0.0240076 0.0349997
621 1 0.12216 0.00444778 0.0349997
622 1 0.124426 0.00939658 0.0349997
623 1 0.124986 0.0265982 0.0349997
22 1 0.083737 0.0465386 0.0349997
53 1 0.0875582 0.0405601 0.0349997
54 1 0.0858827 0.0531925 0.0349997
87 1 0.0915426 0.0334162 0.0349997
88 1 0.0898369 0.0456168 0.0349997
89 1 0.0904026 0.0628435 0.0349997
120 1 0.0938121 0.0383926 0.0349997
121 1 0.0943696 0.0556012 0.0349997
122 1 0.0966365 0.0605732 0.0349997
154 1 0.0983409 0.0483153 0.0349997
155 1 0.100606 0.0532695 0.0349997
187 1 0.10231 0.0410006 0.0349997
188 1 0.104575 0.0459513 0.0349997
189 1 0.105135 0.0631656 0.0349997
220 1 0.106279 0.0336843 0.0349997
221 1 0.108545 0.0386338 0.0349997
222 1 0.109104 0.055845 0.0349997
251 1 0.11137 0.0607897 0.0349997
250 1 0.113074 0.0485272 0.0349997
265 1 0.11534 0.053472 0.0349997
558 1 0.117045 0.0412134 0.0349997
590 1 0.119311 0.0461586 0.0349997
591 1 0.119871 0.0633618 0.0349997
589 1 0.121015 0.0339037 0.0349997
624 1 0.123281 0.0388496 0.0349997
625 1 0.123842 0.0560509 0.0349997
23 1 0.0848335 0.0823917 0.0349997
24 1 0.0852141 0.0992033 0.0349997
55 1 0.0864446 0.0702263 0.0349997
56 1 0.0887195 0.0752295 0.0349997
57 1 0.0892511 0.092433 0.0349997
90 1 0.0926674 0.0678543 0.0349997
91 1 0.0932211 0.0851139 0.0349997
92 1 0.0915252 0.0974039 0.0349997
123 1 0.0971941 0.0777967 0.0349997
124 1 0.0954903 0.0900646 0.0349997
156 1 0.101165 0.0704861 0.0349997
157 1 0.0994604 0.0827531 0.0349997
158 1 0.100021 0.0999704 0.0349997
190 1 0.103431 0.0754342 0.0349997
191 1 0.103991 0.0926475 0.0349997
192 1 0.106256 0.0975901 0.0349997
223 1 0.1074 0.068111 0.0349997
224 1 0.10796 0.0853216 0.0349997
225 1 0.110226 0.0902625 0.0349997
252 1 0.111931 0.0779976 0.0349997
253 1 0.114197 0.0829385 0.0349997
266 1 0.115901 0.0706774 0.0349997
559 1 0.118167 0.075619 0.0349997
560 1 0.118728 0.0928216 0.0349997
592 1 0.122138 0.0683044 0.0349997
593 1 0.122699 0.0855052 0.0349997
594 1 0.120994 0.0977608 0.0349997
628 1 0.124965 0.090446 0.0349997
25 1 0.0842783 0.127831 0.0349997
267 1 0.0837647 0.112832 0.0349997
58 1 0.0875408 0.104627 0.0349997
59 1 0.0881019 0.121841 0.0349997
60 1 0.09038 0.126863 0.0349997
93 1 0.0920817 0.114622 0.0349997
94 1 0.0943507 0.119578 0.0349997
125 1 0.0960511 0.107288 0.0349997
126 1 0.0983174 0.112243 0.0349997
127 1 0.098878 0.129464 0.0349997
159 1 0.102287 0.104918 0.0349997
160 1 0.102847 0.122133 0.0349997
193 1 0.106817 0.114801 0.0349997
194 1 0.105113 0.127073 0.0349997
226 1 0.110787 0.10747 0.0349997
227 1 0.109083 0.119738 0.0349997
254 1 0.114757 0.100143 0.0349997
255 1 0.113053 0.112407 0.0349997
256 1 0.113614 0.129611 0.0349997
561 1 0.117585 0.122283 0.0349997
562 1 0.119851 0.127219 0.0349997
803 1 0.117024 0.105081 0.0349997
595 1 0.121555 0.114961 0.0349997
596 1 0.123822 0.119899 0.0349997
26 1 0.0864257 0.134452 0.0349997
27 1 0.0869877 0.151491 0.0349997
28 1 0.0853773 0.163664 0.0349997
62 1 0.0892626 0.156484 0.0349997
61 1 0.0909454 0.144089 0.0349997
96 1 0.09321 0.149074 0.0349997
95 1 0.0949096 0.136793 0.0349997
97 1 0.0937636 0.166336 0.0349997
128 1 0.0971763 0.141748 0.0349997
129 1 0.0977348 0.158974 0.0349997
130 1 0.100001 0.163912 0.0349997
161 1 0.101144 0.134409 0.0349997
162 1 0.101704 0.151627 0.0349997
163 1 0.10397 0.156561 0.0349997
195 1 0.105674 0.144284 0.0349997
196 1 0.10794 0.149216 0.0349997
197 1 0.108502 0.166423 0.0349997
228 1 0.109644 0.136945 0.0349997
229 1 0.11191 0.141877 0.0349997
230 1 0.112472 0.15908 0.0349997
257 1 0.115881 0.134545 0.0349997
259 1 0.114738 0.16401 0.0349997
258 1 0.116442 0.151745 0.0349997
563 1 0.120413 0.144418 0.0349997
564 1 0.118709 0.156677 0.0349997
597 1 0.124383 0.137096 0.0349997
598 1 0.122679 0.149352 0.0349997
599 1 0.123241 0.166549 0.0349997
5 1 0.0843102 0.194116 0.0349997
29 1 0.0857582 0.180478 0.0349997
30 1 0.0880849 0.185899 0.0349997
63 1 0.0897944 0.17369 0.0349997
64 1 0.0920687 0.178643 0.0349997
65 1 0.0926254 0.195863 0.0349997
98 1 0.0960329 0.171264 0.0349997
99 1 0.096594 0.188488 0.0349997
131 1 0.100563 0.181129 0.0349997
132 1 0.0988608 0.19342 0.0349997
164 1 0.104532 0.173772 0.0349997
165 1 0.102829 0.186056 0.0349997
198 1 0.106798 0.178699 0.0349997
199 1 0.107361 0.195904 0.0349997
231 1 0.110768 0.17135 0.0349997
232 1 0.11133 0.188552 0.0349997
233 1 0.113597 0.193477 0.0349997
260 1 0.115301 0.181209 0.0349997
541 1 0.117567 0.186137 0.0349997
565 1 0.119271 0.173875 0.0349997
566 1 0.121537 0.178807 0.0349997
567 1 0.1221 0.196003 0.0349997
6 1 0.0848244 0.209115 0.0349997
31 1 0.0886465 0.203117 0.0349997
32 1 0.0869712 0.215746 0.0349997
33 1 0.0875334 0.232794 0.0349997
66 1 0.0909249 0.208124 0.0349997
67 1 0.0914906 0.225354 0.0349997
68 1 0.0937559 0.230316 0.0349997
100 1 0.0948948 0.200797 0.0349997
101 1 0.0954542 0.218013 0.0349997
102 1 0.0977217 0.22294 0.0349997
133 1 0.0994223 0.210638 0.0349997
134 1 0.101689 0.215558 0.0349997
135 1 0.102251 0.232769 0.0349997
166 1 0.103391 0.203267 0.0349997
167 1 0.105658 0.208186 0.0349997
168 1 0.10622 0.225391 0.0349997
200 1 0.109627 0.200826 0.0349997
201 1 0.11019 0.218027 0.0349997
202 1 0.108487 0.230305 0.0349997
234 1 0.11416 0.210675 0.0349997
235 1 0.112457 0.222945 0.0349997
261 1 0.116427 0.215599 0.0349997
262 1 0.11699 0.232794 0.0349997
542 1 0.11813 0.203334 0.0349997
568 1 0.120396 0.208262 0.0349997
569 1 0.12096 0.225457 0.0349997
570 1 0.123226 0.230386 0.0349997
602 1 0.124366 0.200935 0.0349997
603 1 0.124929 0.218129 0.0349997
7 1 0.0859259 0.244996 0.0349997
8 1 0.0863084 0.261815 0.0349997
34 1 0.0898092 0.237774 0.0349997
35 1 0.0903423 0.254985 0.0349997
70 1 0.0926174 0.259914 0.0349997
69 1 0.0943105 0.247578 0.0349997
104 1 0.0965808 0.252474 0.0349997
103 1 0.0982815 0.240162 0.0349997
136 1 0.100549 0.245068 0.0349997
137 1 0.101113 0.262277 0.0349997
169 1 0.104518 0.237678 0.0349997
170 1 0.105082 0.254881 0.0349997
171 1 0.107349 0.259786 0.0349997
203 1 0.109051 0.247504 0.0349997
204 1 0.111318 0.252415 0.0349997
236 1 0.11302 0.240142 0.0349997
237 1 0.115287 0.24506 0.0349997
238 1 0.115852 0.262255 0.0349997
543 1 0.119257 0.237718 0.0349997
544 1 0.119821 0.254912 0.0349997
571 1 0.12379 0.24758 0.0349997
572 1 0.122087 0.259837 0.0349997
9 1 0.0848639 0.275478 0.0349997
10 1 0.0853796 0.290476 0.0349997
11 1 0.0875252 0.297128 0.0349997
36 1 0.0886354 0.26723 0.0349997
37 1 0.0891983 0.284459 0.0349997
38 1 0.0914775 0.289434 0.0349997
71 1 0.0931756 0.277136 0.0349997
72 1 0.0954462 0.282028 0.0349997
73 1 0.096008 0.299239 0.0349997
105 1 0.0971438 0.269692 0.0349997
106 1 0.099412 0.274583 0.0349997
107 1 0.0999765 0.29179 0.0349997
140 1 0.102244 0.296673 0.0349997
138 1 0.10338 0.267174 0.0349997
139 1 0.103945 0.284375 0.0349997
173 1 0.106213 0.289268 0.0349997
172 1 0.107914 0.276983 0.0349997
206 1 0.110181 0.281886 0.0349997
207 1 0.110747 0.299085 0.0349997
205 1 0.111883 0.269611 0.0349997
239 1 0.114149 0.274522 0.0349997
240 1 0.114715 0.291721 0.0349997
241 1 0.116981 0.296626 0.0349997
545 1 0.118118 0.267174 0.0349997
546 1 0.118683 0.284372 0.0349997
547 1 0.120949 0.289285 0.0349997
573 1 0.122651 0.277036 0.0349997
574 1 0.124917 0.281954 0.0349997
12 1 0.088089 0.314195 0.0349997
13 1 0.0864903 0.326487 0.0349997
39 1 0.0920449 0.306671 0.0349997
40 1 0.0903669 0.319143 0.0349997
74 1 0.0943121 0.311576 0.0349997
75 1 0.0948716 0.328833 0.0349997
108 1 0.0982776 0.304106 0.0349997
109 1 0.0988423 0.321316 0.0349997
110 1 0.101111 0.326173 0.0349997
141 1 0.10281 0.313877 0.0349997
142 1 0.105078 0.318748 0.0349997
174 1 0.106779 0.306468 0.0349997
175 1 0.109046 0.311353 0.0349997
176 1 0.109613 0.328564 0.0349997
208 1 0.113013 0.303981 0.0349997
209 1 0.11358 0.321192 0.0349997
243 1 0.115846 0.326085 0.0349997
242 1 0.117547 0.313838 0.0349997
549 1 0.119813 0.318739 0.0349997
548 1 0.121514 0.306498 0.0349997
576 1 0.123779 0.311405 0.0349997
577 1 0.124346 0.328656 0.0349997
1 1 0.0854606 0.357104 0.0349997
14 1 0.0868821 0.343309 0.0349997
15 1 0.0892072 0.348698 0.0349997
16 1 0.0897831 0.365937 0.0349997
41 1 0.0909054 0.336367 0.0349997
42 1 0.0931816 0.341219 0.0349997
43 1 0.0937475 0.358444 0.0349997
76 1 0.0971439 0.333635 0.0349997
77 1 0.0977142 0.350843 0.0349997
78 1 0.0960191 0.363176 0.0349997
111 1 0.10168 0.343384 0.0349997
112 1 0.0999818 0.355677 0.0349997
143 1 0.105647 0.335958 0.0349997
144 1 0.103947 0.348234 0.0349997
145 1 0.104518 0.365478 0.0349997
177 1 0.107913 0.340826 0.0349997
178 1 0.108483 0.358072 0.0349997
179 1 0.110747 0.36287 0.0349997
210 1 0.111879 0.333446 0.0349997
211 1 0.112449 0.350693 0.0349997
212 1 0.114711 0.355503 0.0349997
244 1 0.116414 0.343333 0.0349997
536 1 0.118676 0.348153 0.0349997
537 1 0.119255 0.365718 0.0349997
550 1 0.12038 0.335989 0.0349997
551 1 0.122642 0.340815 0.0349997
552 1 0.123219 0.358383 0.0349997
2 1 0.0859719 0.372101 0.0349997
17 1 0.0881185 0.378733 0.0349997
18 1 0.0886417 0.395793 0.0349997
44 1 0.0920495 0.370821 0.0349997
45 1 0.092608 0.388117 0.0349997
46 1 0.0948785 0.392643 0.0349997
79 1 0.0965858 0.380391 0.0349997
80 1 0.098852 0.385146 0.0349997
113 1 0.100552 0.372923 0.0349997
114 1 0.102818 0.377677 0.0349997
115 1 0.103405 0.395226 0.0349997
146 1 0.106782 0.370259 0.0349997
148 1 0.105641 0.399202 0.0349997
147 1 0.107366 0.387815 0.0349997
180 1 0.111328 0.38043 0.0349997
181 1 0.109601 0.391807 0.0349997
213 1 0.115291 0.373066 0.0349997
214 1 0.113563 0.384434 0.0349997
245 1 0.117526 0.377079 0.0349997
553 1 0.12149 0.369737 0.0349997
3 1 0.0869352 0.408292 0.0349997
4 1 0.0880427 0.422238 0.0349997
19 1 0.0909282 0.400598 0.0349997
20 1 0.0915484 0.418332 0.0349997
21 1 0.0898383 0.431006 0.0349997
47 1 0.0954893 0.410036 0.0349997
48 1 0.0937851 0.421654 0.0349997
82 1 0.0977207 0.414062 0.0349997
81 1 0.0994453 0.402683 0.0349997
116 1 0.101682 0.406633 0.0349997
215 1 0.111056 0.533243 0.0349997
246 1 0.115023 0.526 0.0349997
538 1 0.117257 0.530067 0.0349997
554 1 0.118991 0.518748 0.0349997
555 1 0.121225 0.52281 0.0349997
581 1 0.122959 0.511489 0.0349997
83 1 0.0951854 0.562068 0.0349997
84 1 0.0974166 0.566188 0.0349997
117 1 0.0991533 0.554896 0.0349997
118 1 0.101385 0.558996 0.0349997
149 1 0.103121 0.547695 0.0349997
150 1 0.105353 0.551784 0.0349997
182 1 0.107088 0.540476 0.0349997
183 1 0.109321 0.544556 0.0349997
184 1 0.10989 0.56214 0.0349997
216 1 0.113289 0.537316 0.0349997
217 1 0.113858 0.554899 0.0349997
539 1 0.117827 0.547648 0.0349997
540 1 0.116118 0.559774 0.0349997
557 1 0.120087 0.552519 0.0349997
556 1 0.121795 0.54039 0.0349997
584 1 0.124056 0.545258 0.0349997
585 1 0.124616 0.56252 0.0349997
319 1 0.0831872 0.581844 0.0349997
532 1 0.0821485 0.595881 0.0349997
320 1 0.0854824 0.587102 0.0349997
353 1 0.0872557 0.576326 0.0349997
49 1 0.0912143 0.569264 0.0349997
50 1 0.0934463 0.573342 0.0349997
354 1 0.0894859 0.580602 0.0349997
355 1 0.0900247 0.59813 0.0349997
387 1 0.0940069 0.590946 0.0349997
420 1 0.0979805 0.583781 0.0349997
421 1 0.0962674 0.59587 0.0349997
453 1 0.101951 0.576585 0.0349997
454 1 0.10024 0.588689 0.0349997
151 1 0.105921 0.56937 0.0349997
487 1 0.10421 0.581482 0.0349997
488 1 0.104768 0.598751 0.0349997
515 1 0.10818 0.574259 0.0349997
516 1 0.108738 0.591526 0.0349997
517 1 0.111001 0.596488 0.0349997
218 1 0.112149 0.567022 0.0349997
531 1 0.112708 0.584287 0.0349997
1068 1 0.114971 0.589244 0.0349997
855 1 0.116678 0.577039 0.0349997
856 1 0.118941 0.58199 0.0349997
857 1 0.119499 0.599216 0.0349997
889 1 0.120647 0.569782 0.0349997
890 1 0.12291 0.57473 0.0349997
891 1 0.123469 0.591954 0.0349997
290 1 0.0820321 0.612087 0.0349997
322 1 0.0843135 0.61716 0.0349997
321 1 0.0860352 0.604927 0.0349997
356 1 0.0883009 0.610018 0.0349997
357 1 0.0888761 0.627286 0.0349997
358 1 0.0911401 0.632398 0.0349997
388 1 0.0922966 0.603042 0.0349997
389 1 0.092855 0.620293 0.0349997
390 1 0.0951171 0.625313 0.0349997
422 1 0.0968257 0.61314 0.0349997
423 1 0.0990881 0.618138 0.0349997
455 1 0.100797 0.605959 0.0349997
456 1 0.10306 0.61094 0.0349997
457 1 0.103615 0.628173 0.0349997
489 1 0.10703 0.603722 0.0349997
491 1 0.105879 0.633156 0.0349997
490 1 0.107587 0.620952 0.0349997
518 1 0.111558 0.613717 0.0349997
519 1 0.109851 0.625926 0.0349997
533 1 0.113822 0.618684 0.0349997
826 1 0.115529 0.606471 0.0349997
858 1 0.117792 0.611432 0.0349997
859 1 0.11835 0.628643 0.0349997
892 1 0.121763 0.604173 0.0349997
893 1 0.122321 0.621383 0.0349997
894 1 0.124586 0.626347 0.0349997
291 1 0.0833103 0.646567 0.0349997
292 1 0.0836833 0.663407 0.0349997
323 1 0.0849142 0.634338 0.0349997
324 1 0.0871861 0.639477 0.0349997
325 1 0.0877102 0.65675 0.0349997
359 1 0.0916885 0.649688 0.0349997
360 1 0.0899828 0.66186 0.0349997
391 1 0.0956686 0.642556 0.0349997
392 1 0.0939564 0.654719 0.0349997
425 1 0.0979328 0.647567 0.0349997
424 1 0.0996425 0.635376 0.0349997
426 1 0.0984893 0.664788 0.0349997
458 1 0.101906 0.64037 0.0349997
459 1 0.102463 0.657589 0.0349997
460 1 0.104727 0.662585 0.0349997
492 1 0.106436 0.650372 0.0349997
493 1 0.1087 0.655357 0.0349997
520 1 0.110408 0.643139 0.0349997
521 1 0.112672 0.648117 0.0349997
522 1 0.11323 0.665324 0.0349997
534 1 0.114379 0.635896 0.0349997
827 1 0.116644 0.640868 0.0349997
828 1 0.117202 0.658073 0.0349997
862 1 0.119466 0.663043 0.0349997
860 1 0.120615 0.633611 0.0349997
861 1 0.121173 0.650814 0.0349997
896 1 0.123438 0.65578 0.0349997
293 1 0.0827355 0.692054 0.0349997
535 1 0.0822311 0.677032 0.0349997
294 1 0.084879 0.698768 0.0349997
326 1 0.0860021 0.66893 0.0349997
327 1 0.0865594 0.68619 0.0349997
328 1 0.0888345 0.691302 0.0349997
361 1 0.0905383 0.679104 0.0349997
362 1 0.0928066 0.684157 0.0349997
393 1 0.0945141 0.671951 0.0349997
394 1 0.0967795 0.676984 0.0349997
395 1 0.0973377 0.694207 0.0349997
427 1 0.100754 0.669797 0.0349997
428 1 0.101311 0.687012 0.0349997
429 1 0.099603 0.699223 0.0349997
461 1 0.105285 0.679796 0.0349997
462 1 0.103576 0.692012 0.0349997
494 1 0.109257 0.672566 0.0349997
495 1 0.10755 0.684785 0.0349997
523 1 0.111522 0.677547 0.0349997
524 1 0.11208 0.694753 0.0349997
525 1 0.114345 0.69973 0.0349997
829 1 0.116053 0.687503 0.0349997
1071 1 0.115494 0.670299 0.0349997
830 1 0.118318 0.692474 0.0349997
863 1 0.120025 0.680245 0.0349997
864 1 0.12229 0.685213 0.0349997
897 1 0.123996 0.672982 0.0349997
296 1 0.083827 0.728016 0.0349997
295 1 0.0854369 0.715838 0.0349997
330 1 0.0877112 0.720901 0.0349997
329 1 0.0893975 0.708549 0.0349997
363 1 0.0933643 0.701384 0.0349997
364 1 0.0916609 0.713611 0.0349997
365 1 0.0922139 0.730881 0.0349997
396 1 0.0956304 0.70642 0.0349997
397 1 0.096188 0.723652 0.0349997
398 1 0.0984538 0.728665 0.0349997
430 1 0.100161 0.716442 0.0349997
431 1 0.102427 0.721445 0.0349997
463 1 0.104135 0.709225 0.0349997
464 1 0.1064 0.714216 0.0349997
465 1 0.106959 0.731426 0.0349997
496 1 0.108108 0.701994 0.0349997
497 1 0.110373 0.706977 0.0349997
498 1 0.110932 0.724184 0.0349997
526 1 0.114904 0.716934 0.0349997
527 1 0.113197 0.729162 0.0349997
831 1 0.118876 0.709677 0.0349997
832 1 0.117169 0.721906 0.0349997
865 1 0.122849 0.702414 0.0349997
866 1 0.121142 0.714645 0.0349997
867 1 0.121701 0.731847 0.0349997
273 1 0.0827558 0.758464 0.0349997
297 1 0.084206 0.744838 0.0349997
298 1 0.0865313 0.7503 0.0349997
331 1 0.0882422 0.738119 0.0349997
332 1 0.0905156 0.743138 0.0349997
333 1 0.0910715 0.760365 0.0349997
368 1 0.0933399 0.765368 0.0349997
366 1 0.0944823 0.735884 0.0349997
367 1 0.0950426 0.753114 0.0349997
400 1 0.0973083 0.758121 0.0349997
399 1 0.099014 0.745887 0.0349997
433 1 0.101279 0.750888 0.0349997
432 1 0.102986 0.738659 0.0349997
466 1 0.105252 0.743652 0.0349997
467 1 0.105811 0.760864 0.0349997
468 1 0.108077 0.765849 0.0349997
499 1 0.109224 0.73641 0.0349997
500 1 0.109784 0.753619 0.0349997
501 1 0.112049 0.758597 0.0349997
528 1 0.113756 0.746367 0.0349997
809 1 0.116022 0.751341 0.0349997
833 1 0.117729 0.73911 0.0349997
834 1 0.119994 0.744078 0.0349997
835 1 0.120553 0.761281 0.0349997
868 1 0.123966 0.736811 0.0349997
869 1 0.124526 0.754013 0.0349997
870 1 0.122819 0.766246 0.0349997
274 1 0.0832674 0.773468 0.0349997
299 1 0.0870909 0.767524 0.0349997
300 1 0.0854133 0.780119 0.0349997
301 1 0.0859741 0.797163 0.0349997
334 1 0.0893684 0.772582 0.0349997
335 1 0.089933 0.789813 0.0349997
336 1 0.092197 0.794838 0.0349997
369 1 0.0938985 0.782589 0.0349997
370 1 0.0961647 0.787591 0.0349997
401 1 0.0978686 0.775346 0.0349997
402 1 0.100134 0.780343 0.0349997
403 1 0.100694 0.797564 0.0349997
434 1 0.10184 0.768105 0.0349997
435 1 0.104105 0.773097 0.0349997
436 1 0.104665 0.790312 0.0349997
470 1 0.106931 0.795295 0.0349997
469 1 0.108637 0.78306 0.0349997
503 1 0.110902 0.788038 0.0349997
502 1 0.112609 0.775805 0.0349997
529 1 0.114875 0.780778 0.0349997
530 1 0.115435 0.797984 0.0349997
810 1 0.116581 0.768545 0.0349997
836 1 0.118847 0.773514 0.0349997
837 1 0.119407 0.790718 0.0349997
838 1 0.121672 0.795683 0.0349997
871 1 0.123379 0.783448 0.0349997
275 1 0.0843626 0.809325 0.0349997
276 1 0.0847424 0.826139 0.0349997
302 1 0.0882486 0.802184 0.0349997
303 1 0.0887797 0.81939 0.0349997
304 1 0.0870686 0.831574 0.0349997
337 1 0.0927503 0.812101 0.0349997
338 1 0.0910535 0.824376 0.0349997
371 1 0.096723 0.804821 0.0349997
372 1 0.095019 0.817074 0.0349997
404 1 0.0989887 0.809811 0.0349997
405 1 0.0995498 0.827031 0.0349997
406 1 0.101815 0.832014 0.0349997
437 1 0.102959 0.802552 0.0349997
438 1 0.10352 0.819768 0.0349997
439 1 0.105786 0.824749 0.0349997
471 1 0.107491 0.812507 0.0349997
472 1 0.109757 0.817485 0.0349997
504 1 0.111463 0.805247 0.0349997
505 1 0.113728 0.81022 0.0349997
506 1 0.114289 0.827427 0.0349997
811 1 0.1177 0.802953 0.0349997
812 1 0.11826 0.820158 0.0349997
813 1 0.116554 0.832396 0.0349997
840 1 0.120526 0.825123 0.0349997
839 1 0.122232 0.812886 0.0349997
874 1 0.124498 0.817848 0.0349997
277 1 0.0832922 0.839763 0.0349997
278 1 0.083805 0.854764 0.0349997
279 1 0.0859522 0.861389 0.0349997
305 1 0.0876292 0.848788 0.0349997
306 1 0.0899072 0.853821 0.0349997
339 1 0.0916098 0.841595 0.0349997
340 1 0.0938785 0.846569 0.0349997
341 1 0.0944376 0.863784 0.0349997
373 1 0.0955799 0.834299 0.0349997
374 1 0.0978457 0.839283 0.0349997
375 1 0.0984067 0.856505 0.0349997
407 1 0.102376 0.849232 0.0349997
408 1 0.100672 0.861484 0.0349997
440 1 0.106346 0.841962 0.0349997
441 1 0.104642 0.85421 0.0349997
473 1 0.110317 0.834695 0.0349997
474 1 0.108612 0.846938 0.0349997
475 1 0.109173 0.864149 0.0349997
507 1 0.112583 0.839667 0.0349997
508 1 0.113143 0.856876 0.0349997
509 1 0.115409 0.861843 0.0349997
814 1 0.117115 0.849602 0.0349997
815 1 0.119381 0.854566 0.0349997
841 1 0.121086 0.842327 0.0349997
842 1 0.123352 0.847288 0.0349997
843 1 0.123913 0.864491 0.0349997
280 1 0.0865136 0.878426 0.0349997
281 1 0.084902 0.890588 0.0349997
308 1 0.0887885 0.883425 0.0349997
307 1 0.0904724 0.871044 0.0349997
342 1 0.0927369 0.876043 0.0349997
343 1 0.0932908 0.893299 0.0349997
344 1 0.0955598 0.898251 0.0349997
376 1 0.0967039 0.868764 0.0349997
377 1 0.0972629 0.885989 0.0349997
378 1 0.0995287 0.890961 0.0349997
409 1 0.101232 0.878703 0.0349997
410 1 0.103498 0.883677 0.0349997
442 1 0.105202 0.871425 0.0349997
443 1 0.107468 0.876397 0.0349997
444 1 0.108029 0.89361 0.0349997
476 1 0.111438 0.86912 0.0349997
478 1 0.110294 0.898579 0.0349997
477 1 0.111999 0.88633 0.0349997
510 1 0.11597 0.87905 0.0349997
511 1 0.114265 0.891296 0.0349997
816 1 0.119941 0.871771 0.0349997
817 1 0.118236 0.884014 0.0349997
844 1 0.122207 0.876732 0.0349997
845 1 0.122767 0.893936 0.0349997
268 1 0.0838343 0.921038 0.0349997
282 1 0.0852821 0.907401 0.0349997
283 1 0.0876093 0.912819 0.0349997
284 1 0.088171 0.930029 0.0349997
309 1 0.08932 0.900624 0.0349997
310 1 0.0915946 0.905581 0.0349997
311 1 0.0921521 0.922791 0.0349997
345 1 0.0961217 0.91547 0.0349997
346 1 0.0944215 0.927746 0.0349997
379 1 0.10009 0.908179 0.0349997
380 1 0.0983876 0.92044 0.0349997
412 1 0.102356 0.91315 0.0349997
411 1 0.104059 0.900892 0.0349997
413 1 0.102917 0.930366 0.0349997
445 1 0.106325 0.905863 0.0349997
446 1 0.106886 0.923077 0.0349997
447 1 0.109151 0.928043 0.0349997
479 1 0.110855 0.91579 0.0349997
480 1 0.113121 0.920754 0.0349997
512 1 0.114825 0.908504 0.0349997
804 1 0.117091 0.913467 0.0349997
805 1 0.117651 0.930673 0.0349997
818 1 0.118796 0.90122 0.0349997
819 1 0.121062 0.90618 0.0349997
820 1 0.121622 0.923384 0.0349997
848 1 0.123888 0.928341 0.0349997
269 1 0.0843459 0.936045 0.0349997
285 1 0.0864937 0.942653 0.0349997
286 1 0.0870613 0.959667 0.0349997
287 1 0.0893399 0.964589 0.0349997
312 1 0.0904506 0.935024 0.0349997
313 1 0.0910196 0.952235 0.0349997
314 1 0.0932848 0.957218 0.0349997
347 1 0.0949827 0.944952 0.0349997
348 1 0.0972486 0.949926 0.0349997
381 1 0.0989495 0.937658 0.0349997
382 1 0.101214 0.942629 0.0349997
383 1 0.101775 0.959847 0.0349997
414 1 0.105182 0.935335 0.0349997
415 1 0.105743 0.95255 0.0349997
416 1 0.104039 0.964814 0.0349997
448 1 0.109711 0.945256 0.0349997
449 1 0.108008 0.957514 0.0349997
481 1 0.113681 0.937964 0.0349997
482 1 0.111977 0.950218 0.0349997
513 1 0.115947 0.942923 0.0349997
514 1 0.116507 0.960131 0.0349997
806 1 0.118773 0.965087 0.0349997
821 1 0.119917 0.935631 0.0349997
822 1 0.120478 0.952836 0.0349997
823 1 0.122744 0.957791 0.0349997
849 1 0.124449 0.945544 0.0349997
270 1 0.085468 0.97194 0.0349997
271 1 0.0858833 0.98885 0.0349997
289 1 0.0881885 0.994024 0.0349997
288 1 0.0898841 0.981784 0.0349997
316 1 0.0921489 0.986765 0.0349997
315 1 0.0938428 0.974459 0.0349997
349 1 0.0978085 0.967147 0.0349997
350 1 0.0961076 0.97942 0.0349997
351 1 0.0966623 0.996651 0.0349997
384 1 0.100073 0.972117 0.0349997
385 1 0.100631 0.989339 0.0349997
386 1 0.102895 0.994298 0.0349997
417 1 0.104599 0.982031 0.0349997
418 1 0.106864 0.98699 0.0349997
450 1 0.108568 0.974728 0.0349997
451 1 0.110833 0.979686 0.0349997
452 1 0.111393 0.996897 0.0349997
483 1 0.112537 0.967428 0.0349997
484 1 0.114803 0.972385 0.0349997
485 1 0.115363 0.989593 0.0349997
807 1 0.119333 0.982292 0.0349997
808 1 0.117629 0.994546 0.0349997
824 1 0.123304 0.974994 0.0349997
825 1 0.121599 0.987244 0.0349997
655 1 0.128958 0.0192964 0.0349997
656 1 0.127252 0.0315447 0.0349997
854 1 0.128397 0.00209638 0.0349997
688 1 0.132929 0.0119979 0.0349997
689 1 0.131224 0.0242435 0.0349997
721 1 0.136901 0.0047023 0.0349997
722 1 0.135195 0.0169458 0.0349997
755 1 0.139167 0.00965094 0.0349997
756 1 0.139728 0.0268476 0.0349997
757 1 0.141994 0.0317959 0.0349997
783 1 0.143138 0.00235877 0.0349997
784 1 0.143699 0.019555 0.0349997
785 1 0.145965 0.0245044 0.0349997
799 1 0.147671 0.0122649 0.0349997
1123 1 0.151643 0.00497703 0.0349997
1336 1 0.149937 0.0172156 0.0349997
1124 1 0.153909 0.00992889 0.0349997
1125 1 0.15447 0.0271247 0.0349997
1158 1 0.15788 0.00264367 0.0349997
1159 1 0.158441 0.0198399 0.0349997
1160 1 0.156736 0.0320775 0.0349997
1192 1 0.160707 0.0247939 0.0349997
1191 1 0.162413 0.012556 0.0349997
1225 1 0.164679 0.0175107 0.0349997
1224 1 0.166384 0.00527227 0.0349997
1258 1 0.16865 0.0102273 0.0349997
1259 1 0.169211 0.027425 0.0349997
1260 1 0.171477 0.0323808 0.0349997
1291 1 0.172621 0.00294283 0.0349997
1292 1 0.173182 0.0201409 0.0349997
1293 1 0.175448 0.025096 0.0349997
1320 1 0.177153 0.0128552 0.0349997
1321 1 0.179418 0.0178091 0.0349997
1335 1 0.181124 0.005568 0.0349997
1630 1 0.18395 0.0277184 0.0349997
1660 1 0.187361 0.00323138 0.0349997
1662 1 0.186216 0.0326697 0.0349997
1872 1 0.183389 0.0105206 0.0349997
626 1 0.126108 0.0609947 0.0349997
657 1 0.127813 0.0487444 0.0349997
658 1 0.13008 0.0536893 0.0349997
690 1 0.131785 0.041442 0.0349997
691 1 0.134051 0.046388 0.0349997
692 1 0.134612 0.0635851 0.0349997
723 1 0.135756 0.0341432 0.0349997
724 1 0.138022 0.0390903 0.0349997
725 1 0.138583 0.0562867 0.0349997
758 1 0.142555 0.0489917 0.0349997
759 1 0.140849 0.0612335 0.0349997
786 1 0.146526 0.0417 0.0349997
787 1 0.144821 0.0539399 0.0349997
801 1 0.148793 0.0466498 0.0349997
802 1 0.149354 0.0638448 0.0349997
1094 1 0.150498 0.0344111 0.0349997
1126 1 0.152764 0.0393625 0.0349997
1127 1 0.153325 0.0565577 0.0349997
1128 1 0.155591 0.0615102 0.0349997
1161 1 0.157297 0.0492732 0.0349997
1162 1 0.159563 0.0542274 0.0349997
1193 1 0.161268 0.0419902 0.0349997
1194 1 0.163534 0.0469457 0.0349997
1195 1 0.164095 0.0641425 0.0349997
1226 1 0.16524 0.0347078 0.0349997
1227 1 0.167506 0.0396638 0.0349997
1228 1 0.168067 0.0568616 0.0349997
1261 1 0.172037 0.0495792 0.0349997
1262 1 0.170332 0.061819 0.0349997
1294 1 0.176008 0.0422946 0.0349997
1295 1 0.174303 0.0545358 0.0349997
1323 1 0.178274 0.0472495 0.0349997
1322 1 0.179979 0.0350075 0.0349997
1324 1 0.178834 0.0644488 0.0349997
1337 1 0.182245 0.0399604 0.0349997
1338 1 0.182805 0.0571589 0.0349997
1631 1 0.185071 0.0621099 0.0349997
1663 1 0.186776 0.0498672 0.0349997
627 1 0.12667 0.0781939 0.0349997
660 1 0.128936 0.0831364 0.0349997
659 1 0.130641 0.0708874 0.0349997
693 1 0.132907 0.0758314 0.0349997
694 1 0.133468 0.093028 0.0349997
695 1 0.135734 0.0979717 0.0349997
726 1 0.136878 0.0685305 0.0349997
727 1 0.137439 0.0857265 0.0349997
728 1 0.139705 0.0906718 0.0349997
760 1 0.141411 0.0784289 0.0349997
761 1 0.143677 0.0833759 0.0349997
788 1 0.145382 0.0711351 0.0349997
789 1 0.147648 0.0760837 0.0349997
790 1 0.148209 0.0932783 0.0349997
1095 1 0.15162 0.0687953 0.0349997
1339 1 0.150475 0.0982275 0.0349997
1096 1 0.152181 0.0859899 0.0349997
1129 1 0.156153 0.0787053 0.0349997
1130 1 0.154447 0.0909416 0.0349997
1163 1 0.160124 0.0714233 0.0349997
1164 1 0.158419 0.0836593 0.0349997
1196 1 0.16239 0.0763793 0.0349997
1197 1 0.162951 0.0935756 0.0349997
1198 1 0.165217 0.0985341 0.0349997
1229 1 0.166361 0.0690998 0.0349997
1230 1 0.166922 0.0862974 0.0349997
1231 1 0.169188 0.0912569 0.0349997
1263 1 0.170893 0.0790178 0.0349997
1264 1 0.173159 0.0839766 0.0349997
1296 1 0.174864 0.0717352 0.0349997
1297 1 0.177129 0.0766918 0.0349997
1298 1 0.17769 0.0938923 0.0349997
1325 1 0.1811 0.0694024 0.0349997
1326 1 0.18166 0.0866019 0.0349997
1327 1 0.179956 0.0988472 0.0349997
1632 1 0.185631 0.079308 0.0349997
1875 1 0.183926 0.0915527 0.0349997
629 1 0.125526 0.107645 0.0349997
630 1 0.127792 0.112585 0.0349997
631 1 0.128354 0.129781 0.0349997
661 1 0.129497 0.100334 0.0349997
662 1 0.131763 0.105276 0.0349997
663 1 0.132325 0.122472 0.0349997
696 1 0.136296 0.115167 0.0349997
697 1 0.134591 0.127414 0.0349997
729 1 0.140267 0.107867 0.0349997
730 1 0.138562 0.120111 0.0349997
763 1 0.142533 0.112813 0.0349997
762 1 0.144238 0.100571 0.0349997
764 1 0.143094 0.130007 0.0349997
791 1 0.146504 0.105518 0.0349997
792 1 0.147065 0.122712 0.0349997
793 1 0.149331 0.12766 0.0349997
1097 1 0.151037 0.115422 0.0349997
1098 1 0.153303 0.120372 0.0349997
1131 1 0.155008 0.108136 0.0349997
1132 1 0.157274 0.113089 0.0349997
1133 1 0.157835 0.130283 0.0349997
1165 1 0.15898 0.100854 0.0349997
1166 1 0.161246 0.105811 0.0349997
1167 1 0.161807 0.123006 0.0349997
1200 1 0.164073 0.127965 0.0349997
1199 1 0.165778 0.115731 0.0349997
1233 1 0.168044 0.120693 0.0349997
1232 1 0.169749 0.108456 0.0349997
1265 1 0.17372 0.101177 0.0349997
1266 1 0.172015 0.113418 0.0349997
1267 1 0.172576 0.130619 0.0349997
1299 1 0.175985 0.106136 0.0349997
1300 1 0.176546 0.123339 0.0349997
1301 1 0.178811 0.128296 0.0349997
1328 1 0.180516 0.116048 0.0349997
1329 1 0.182782 0.120999 0.0349997
1633 1 0.184486 0.108752 0.0349997
1634 1 0.186752 0.113698 0.0349997
1635 1 0.187313 0.130895 0.0349997
632 1 0.12665 0.142034 0.0349997
633 1 0.127212 0.15923 0.0349997
634 1 0.129478 0.164168 0.0349997
664 1 0.13062 0.134721 0.0349997
665 1 0.131182 0.151917 0.0349997
666 1 0.133448 0.156857 0.0349997
698 1 0.135153 0.144609 0.0349997
699 1 0.137419 0.149552 0.0349997
731 1 0.139123 0.137306 0.0349997
732 1 0.141389 0.14225 0.0349997
733 1 0.141951 0.159445 0.0349997
765 1 0.14536 0.134953 0.0349997
766 1 0.145922 0.152148 0.0349997
767 1 0.144217 0.16439 0.0349997
794 1 0.149892 0.144854 0.0349997
795 1 0.148187 0.157094 0.0349997
1099 1 0.153864 0.137565 0.0349997
1100 1 0.152158 0.149803 0.0349997
1134 1 0.156129 0.142516 0.0349997
1135 1 0.15669 0.15971 0.0349997
1136 1 0.158956 0.164661 0.0349997
1168 1 0.160101 0.135238 0.0349997
1169 1 0.160662 0.152432 0.0349997
1170 1 0.162928 0.15739 0.0349997
1201 1 0.164634 0.145161 0.0349997
1202 1 0.1669 0.150125 0.0349997
1234 1 0.168606 0.137892 0.0349997
1235 1 0.170871 0.142858 0.0349997
1236 1 0.171433 0.160061 0.0349997
1270 1 0.173698 0.165032 0.0349997
1268 1 0.174841 0.135583 0.0349997
1269 1 0.175402 0.152788 0.0349997
1303 1 0.177668 0.15775 0.0349997
1302 1 0.179372 0.1455 0.0349997
1331 1 0.181637 0.150451 0.0349997
1330 1 0.183342 0.1382 0.0349997
1636 1 0.185608 0.143142 0.0349997
1637 1 0.186169 0.16034 0.0349997
600 1 0.125508 0.171484 0.0349997
601 1 0.12607 0.188679 0.0349997