ITEM: TIMESTEP
10000
ITEM: NUMBER OF ATOMS
13399
ITEM: BOX BOUNDS pp pp pp
0.0000000000000000e+00 6.0561289928055407e+02
-5.8567062219060988e-02 7.0118345503508777e+01
0.0000000000000000e+00 1.0000000000000000e+02
ITEM: ATOMS id type xs ys zs
51 1 0.0830198 0.00730998 0.0349997
264 1 0.0815259 0.0226888 0.0349997
52 1 0.0853267 0.0141659 0.0349997
53 1 0.0858293 0.0340634 0.0349997
85 1 0.0870865 0.000590149 0.0349997
86 1 0.0893428 0.00686355 0.0349997
87 1 0.0898378 0.0267747 0.0349997
120 1 0.0920887 0.0330239 0.0349997
119 1 0.0938368 0.0193377 0.0349997
153 1 0.096084 0.0255635 0.0349997
152 1 0.0978307 0.0118548 0.0349997
185 1 0.101825 0.00437605 0.0349997
186 1 0.100077 0.0180797 0.0349997
187 1 0.100575 0.0380007 0.0349997
219 1 0.104071 0.0106007 0.0349997
220 1 0.10457 0.0305177 0.0349997
221 1 0.106817 0.0367351 0.0349997
247 1 0.108066 0.0031256 0.0349997
248 1 0.108565 0.0230385 0.0349997
249 1 0.110812 0.0292559 0.0349997
263 1 0.11256 0.0155648 0.0349997
800 1 0.114808 0.0217824 0.0349997
587 1 0.116556 0.00809612 0.0349997
588 1 0.118804 0.0143132 0.0349997
589 1 0.119303 0.0342163 0.0349997
621 1 0.120552 0.000630493 0.0349997
622 1 0.1228 0.00684754 0.0349997
623 1 0.123299 0.0267487 0.0349997
22 1 0.0819883 0.0400505 0.0349997
54 1 0.0841093 0.0481983 0.0349997
55 1 0.0846102 0.0679111 0.0349997
56 1 0.0868663 0.074191 0.0349997
88 1 0.0880891 0.0404059 0.0349997
89 1 0.0885931 0.0603416 0.0349997
90 1 0.0908392 0.0666283 0.0349997
121 1 0.0925846 0.0529368 0.0349997
122 1 0.0948331 0.0591794 0.0349997
154 1 0.0965808 0.0454842 0.0349997
155 1 0.0988278 0.0517065 0.0349997
156 1 0.099325 0.0716267 0.0349997
188 1 0.102822 0.0442194 0.0349997
189 1 0.10332 0.0641361 0.0349997
223 1 0.105568 0.070347 0.0349997
222 1 0.107316 0.0566475 0.0349997
251 1 0.109563 0.0628591 0.0349997
250 1 0.111311 0.0491648 0.0349997
265 1 0.113559 0.0553772 0.0349997
266 1 0.114059 0.0752822 0.0349997
558 1 0.115307 0.041688 0.0349997
590 1 0.117555 0.0479014 0.0349997
591 1 0.118055 0.067804 0.0349997
592 1 0.120303 0.0740147 0.0349997
624 1 0.121551 0.0404304 0.0349997
625 1 0.122051 0.0603312 0.0349997
626 1 0.124299 0.0665441 0.0349997
23 1 0.0829563 0.0815244 0.0349997
24 1 0.0832765 0.100939 0.0349997
57 1 0.0873362 0.094092 0.0349997
58 1 0.0855829 0.107715 0.0349997
91 1 0.0913311 0.0865987 0.0349997
92 1 0.0895917 0.100334 0.0349997
124 1 0.0935819 0.092816 0.0349997
123 1 0.0953291 0.0791084 0.0349997
125 1 0.0940809 0.112745 0.0349997
157 1 0.0975771 0.0853312 0.0349997
158 1 0.098076 0.105252 0.0349997
159 1 0.100324 0.111463 0.0349997
190 1 0.101573 0.0778404 0.0349997
191 1 0.102071 0.0977557 0.0349997
192 1 0.104319 0.103961 0.0349997
224 1 0.106067 0.0902584 0.0349997
225 1 0.108315 0.096464 0.0349997
252 1 0.110063 0.082767 0.0349997
253 1 0.112311 0.0889741 0.0349997
254 1 0.112811 0.108878 0.0349997
803 1 0.115059 0.115082 0.0349997
559 1 0.116307 0.0814913 0.0349997
560 1 0.116807 0.101393 0.0349997
594 1 0.119055 0.1076 0.0349997
593 1 0.120803 0.0939146 0.0349997
628 1 0.123051 0.100125 0.0349997
627 1 0.124799 0.0864429 0.0349997
267 1 0.0817788 0.11627 0.0349997
25 1 0.0822384 0.133632 0.0349997
26 1 0.0843612 0.141744 0.0349997
59 1 0.086082 0.127635 0.0349997
60 1 0.0883414 0.133937 0.0349997
61 1 0.0888445 0.153872 0.0349997
93 1 0.0900864 0.120258 0.0349997
94 1 0.0923369 0.12648 0.0349997
95 1 0.0928338 0.146401 0.0349997
126 1 0.096329 0.118965 0.0349997
127 1 0.0968278 0.13889 0.0349997
128 1 0.0950823 0.152616 0.0349997
160 1 0.100823 0.131379 0.0349997
161 1 0.0990759 0.145094 0.0349997
193 1 0.104819 0.123872 0.0349997
194 1 0.103071 0.137578 0.0349997
227 1 0.107067 0.13007 0.0349997
226 1 0.108815 0.116371 0.0349997
228 1 0.107567 0.149976 0.0349997
255 1 0.111063 0.122572 0.0349997
256 1 0.111564 0.142474 0.0349997
257 1 0.113812 0.148673 0.0349997
561 1 0.11556 0.134982 0.0349997
562 1 0.117809 0.141185 0.0349997
595 1 0.119556 0.127498 0.0349997
596 1 0.121805 0.133706 0.0349997
597 1 0.122306 0.153602 0.0349997
629 1 0.123552 0.120023 0.0349997
28 1 0.0832081 0.175084 0.0349997
27 1 0.0848615 0.161464 0.0349997
62 1 0.0871177 0.167734 0.0349997
63 1 0.087587 0.187639 0.0349997
96 1 0.0910906 0.160127 0.0349997
97 1 0.0915816 0.180099 0.0349997
98 1 0.0938328 0.186283 0.0349997
129 1 0.0955788 0.172547 0.0349997
130 1 0.0978276 0.178738 0.0349997
162 1 0.0995746 0.165012 0.0349997
163 1 0.101823 0.171201 0.0349997
164 1 0.102324 0.191109 0.0349997
195 1 0.103571 0.157488 0.0349997
196 1 0.10582 0.163679 0.0349997
197 1 0.106321 0.183581 0.0349997
229 1 0.109816 0.15617 0.0349997
230 1 0.110317 0.176069 0.0349997
231 1 0.10857 0.189767 0.0349997
258 1 0.114314 0.16857 0.0349997
259 1 0.112566 0.182262 0.0349997
563 1 0.11831 0.161082 0.0349997
564 1 0.116562 0.174769 0.0349997
598 1 0.120558 0.167286 0.0349997
599 1 0.12106 0.187181 0.0349997
632 1 0.124554 0.159811 0.0349997
5 1 0.0820312 0.209844 0.0349997
6 1 0.0824909 0.227207 0.0349997
29 1 0.083528 0.194503 0.0349997
30 1 0.0858342 0.201282 0.0349997
31 1 0.0863327 0.221212 0.0349997
66 1 0.0885923 0.227495 0.0349997
64 1 0.0898428 0.193859 0.0349997
65 1 0.0903367 0.213787 0.0349997
100 1 0.0925881 0.219973 0.0349997
99 1 0.0943317 0.206211 0.0349997
132 1 0.096581 0.212388 0.0349997
131 1 0.0983275 0.198654 0.0349997
165 1 0.100577 0.204829 0.0349997
166 1 0.101078 0.224734 0.0349997
198 1 0.104573 0.197289 0.0349997
199 1 0.105075 0.217188 0.0349997
200 1 0.107324 0.223364 0.0349997
232 1 0.109072 0.209664 0.0349997
233 1 0.111321 0.21585 0.0349997
260 1 0.113068 0.202157 0.0349997
541 1 0.115317 0.208352 0.0349997
542 1 0.11582 0.228244 0.0349997
565 1 0.117065 0.194664 0.0349997
566 1 0.119313 0.200866 0.0349997
567 1 0.119816 0.220759 0.0349997
600 1 0.123309 0.193388 0.0349997
601 1 0.123811 0.213282 0.0349997
602 1 0.122064 0.226965 0.0349997
7 1 0.0834609 0.268748 0.0349997
32 1 0.0846123 0.235345 0.0349997
33 1 0.0851114 0.255084 0.0349997
34 1 0.0873684 0.261342 0.0349997
67 1 0.0890944 0.247441 0.0349997
68 1 0.0913418 0.253654 0.0349997
101 1 0.0930846 0.239893 0.0349997
102 1 0.0953353 0.246051 0.0349997
103 1 0.0958334 0.265967 0.0349997
133 1 0.0970808 0.232304 0.0349997
134 1 0.0993307 0.238461 0.0349997
135 1 0.0998318 0.258363 0.0349997
169 1 0.102083 0.264509 0.0349997
167 1 0.103327 0.2309 0.0349997
168 1 0.10383 0.250795 0.0349997
202 1 0.10608 0.256958 0.0349997
201 1 0.107827 0.243256 0.0349997
235 1 0.110077 0.249435 0.0349997
234 1 0.111824 0.235742 0.0349997
261 1 0.114073 0.241933 0.0349997
262 1 0.114578 0.261822 0.0349997
543 1 0.116826 0.26802 0.0349997
568 1 0.118069 0.234444 0.0349997
569 1 0.118573 0.254335 0.0349997
570 1 0.120821 0.260541 0.0349997
603 1 0.122568 0.246857 0.0349997
604 1 0.124816 0.253068 0.0349997
8 1 0.0837809 0.28818 0.0349997
9 1 0.0822877 0.303555 0.0349997
35 1 0.0878373 0.281264 0.0349997
36 1 0.0860866 0.294972 0.0349997
69 1 0.0918328 0.273627 0.0349997
70 1 0.0900946 0.287439 0.0349997
71 1 0.0905883 0.30737 0.0349997
104 1 0.0940872 0.279729 0.0349997
105 1 0.0945885 0.299635 0.0349997
106 1 0.0968417 0.305731 0.0349997
136 1 0.0980848 0.272098 0.0349997
137 1 0.0985883 0.29199 0.0349997
138 1 0.100841 0.298113 0.0349997
170 1 0.102587 0.284396 0.0349997
171 1 0.104838 0.290546 0.0349997
203 1 0.106585 0.276844 0.0349997
236 1 0.110582 0.269323 0.0349997
204 1 0.108835 0.283016 0.0349997
205 1 0.109341 0.302897 0.0349997
237 1 0.112831 0.27551 0.0349997
238 1 0.113337 0.295395 0.0349997
545 1 0.115586 0.301593 0.0349997
544 1 0.117331 0.287908 0.0349997
572 1 0.11958 0.294115 0.0349997
571 1 0.121325 0.280432 0.0349997
606 1 0.123573 0.286644 0.0349997
607 1 0.124077 0.306537 0.0349997
10 1 0.082748 0.320919 0.0349997
11 1 0.0848645 0.329153 0.0349997
37 1 0.0865838 0.314932 0.0349997
38 1 0.0888448 0.321162 0.0349997
39 1 0.0893455 0.341121 0.0349997
72 1 0.0928446 0.313428 0.0349997
73 1 0.0933451 0.33331 0.0349997
107 1 0.0973472 0.325611 0.0349997
108 1 0.0956014 0.33936 0.0349997
139 1 0.101347 0.317988 0.0349997
140 1 0.0996011 0.331705 0.0349997
172 1 0.105345 0.310424 0.0349997
173 1 0.103599 0.324125 0.0349997
174 1 0.104109 0.343993 0.0349997
206 1 0.107596 0.31659 0.0349997
207 1 0.108104 0.336465 0.0349997
208 1 0.110354 0.342651 0.0349997
239 1 0.111591 0.309083 0.0349997
240 1 0.112098 0.328964 0.0349997
241 1 0.114347 0.335165 0.0349997
546 1 0.116091 0.32148 0.0349997
547 1 0.11834 0.32769 0.0349997
573 1 0.120084 0.314005 0.0349997
574 1 0.122332 0.320221 0.0349997
575 1 0.122836 0.340114 0.0349997
13 1 0.0837221 0.362797 0.0349997
14 1 0.0840394 0.382277 0.0349997
12 1 0.0853594 0.348953 0.0349997
40 1 0.0876201 0.355153 0.0349997
41 1 0.08809 0.375113 0.0349997
42 1 0.0903636 0.380873 0.0349997
74 1 0.091602 0.347112 0.0349997
75 1 0.0921025 0.367011 0.0349997
76 1 0.0943641 0.372972 0.0349997
109 1 0.0961099 0.35922 0.0349997
110 1 0.0983664 0.365279 0.0349997
141 1 0.100111 0.351566 0.0349997
142 1 0.102365 0.35769 0.0349997
143 1 0.102879 0.377545 0.0349997
175 1 0.10636 0.350155 0.0349997
177 1 0.10513 0.383713 0.0349997
176 1 0.106872 0.370024 0.0349997
209 1 0.110863 0.36253 0.0349997
210 1 0.109121 0.376218 0.0349997
242 1 0.114854 0.35505 0.0349997
243 1 0.113111 0.368738 0.0349997
548 1 0.118845 0.347579 0.0349997
549 1 0.117101 0.361266 0.0349997
550 1 0.117608 0.381157 0.0349997
576 1 0.121092 0.3538 0.0349997
577 1 0.121597 0.373694 0.0349997
578 1 0.123843 0.379922 0.0349997
1 1 0.082563 0.397814 0.0349997
2 1 0.0830237 0.415202 0.0349997
15 1 0.0863442 0.389116 0.0349997
16 1 0.0868382 0.409207 0.0349997
44 1 0.089131 0.414506 0.0349997
43 1 0.0908753 0.400661 0.0349997
78 1 0.093143 0.406537 0.0349997
77 1 0.0948835 0.392789 0.0349997
112 1 0.0971425 0.398819 0.0349997
113 1 0.0976688 0.418632 0.0349997
111 1 0.0988838 0.385116 0.0349997
144 1 0.101138 0.391238 0.0349997
145 1 0.101657 0.411081 0.0349997
146 1 0.103907 0.41727 0.0349997
178 1 0.105644 0.403577 0.0349997
179 1 0.107892 0.409787 0.0349997
211 1 0.109631 0.396095 0.0349997
212 1 0.111878 0.402315 0.0349997
213 1 0.112386 0.422203 0.0349997
244 1 0.113619 0.388623 0.0349997
536 1 0.115865 0.394847 0.0349997
537 1 0.116371 0.414741 0.0349997
551 1 0.119854 0.387383 0.0349997
553 1 0.118616 0.420975 0.0349997
552 1 0.120358 0.40728 0.0349997
579 1 0.124346 0.39982 0.0349997
580 1 0.122603 0.413513 0.0349997
3 1 0.0840707 0.460036 0.0349997
17 1 0.0851055 0.424069 0.0349997
18 1 0.0856111 0.444206 0.0349997
19 1 0.0879493 0.448187 0.0349997
45 1 0.0896682 0.434178 0.0349997
46 1 0.0919425 0.440006 0.0349997
47 1 0.0925244 0.459662 0.0349997
79 1 0.093674 0.426297 0.0349997
80 1 0.0959353 0.432333 0.0349997
81 1 0.096481 0.452104 0.0349997
114 1 0.0999216 0.424775 0.0349997
115 1 0.100449 0.444606 0.0349997
116 1 0.0987237 0.45832 0.0349997
148 1 0.102692 0.450839 0.0349997
147 1 0.104424 0.437133 0.0349997
181 1 0.106667 0.443369 0.0349997
180 1 0.108403 0.429666 0.0349997
214 1 0.110647 0.435902 0.0349997
215 1 0.111152 0.455798 0.0349997
245 1 0.11463 0.428438 0.0349997
246 1 0.115134 0.448337 0.0349997
538 1 0.117377 0.454576 0.0349997
554 1 0.119119 0.440875 0.0349997
555 1 0.121362 0.447111 0.0349997
581 1 0.123105 0.433415 0.0349997
4 1 0.084582 0.479579 0.0349997
20 1 0.0885823 0.467452 0.0349997
21 1 0.0869518 0.481411 0.0349997
48 1 0.0908307 0.473438 0.0349997
49 1 0.0913927 0.493051 0.0349997
50 1 0.0935934 0.499388 0.0349997
82 1 0.0947648 0.465826 0.0349997
83 1 0.0953016 0.485617 0.0349997
84 1 0.0975225 0.491914 0.0349997
117 1 0.0992432 0.478169 0.0349997
118 1 0.101475 0.484444 0.0349997
149 1 0.103204 0.470716 0.0349997
150 1 0.105441 0.476975 0.0349997
151 1 0.105937 0.496883 0.0349997
182 1 0.107175 0.463258 0.0349997
183 1 0.109415 0.469507 0.0349997
184 1 0.109913 0.489415 0.0349997
216 1 0.113394 0.462041 0.0349997
217 1 0.113894 0.481948 0.0349997
218 1 0.112153 0.495657 0.0349997
539 1 0.117877 0.474482 0.0349997
540 1 0.116135 0.488186 0.0349997
557 1 0.12012 0.480717 0.0349997
584 1 0.124106 0.473251 0.0349997
556 1 0.121863 0.467017 0.0349997
585 1 0.124605 0.493159 0.0349997
532 1 0.0820666 0.514642 0.0349997
290 1 0.082193 0.532765 0.0349997
319 1 0.0837468 0.500434 0.0349997
353 1 0.0875673 0.500484 0.0349997
320 1 0.0857102 0.51219 0.0349997
321 1 0.0860109 0.53217 0.0349997
354 1 0.0897179 0.506885 0.0349997
355 1 0.0900787 0.526685 0.0349997
388 1 0.0922923 0.532939 0.0349997
387 1 0.0940376 0.519295 0.0349997
421 1 0.0962601 0.525539 0.0349997
420 1 0.097999 0.511829 0.0349997
453 1 0.101965 0.504354 0.0349997
454 1 0.100228 0.518079 0.0349997
455 1 0.100704 0.537992 0.0349997
487 1 0.104199 0.510604 0.0349997
488 1 0.104685 0.530518 0.0349997
489 1 0.106923 0.536747 0.0349997
515 1 0.108174 0.503129 0.0349997
516 1 0.108666 0.523042 0.0349997
517 1 0.110905 0.529274 0.0349997
531 1 0.112648 0.515568 0.0349997
1068 1 0.114889 0.5218 0.0349997
855 1 0.116632 0.508096 0.0349997
856 1 0.118874 0.514328 0.0349997
857 1 0.119369 0.534239 0.0349997
889 1 0.120618 0.500626 0.0349997
890 1 0.122861 0.506857 0.0349997
891 1 0.123357 0.526767 0.0349997
322 1 0.0841093 0.544622 0.0349997
323 1 0.0845754 0.565061 0.0349997
324 1 0.0868639 0.572246 0.0349997
356 1 0.0882396 0.539351 0.0349997
357 1 0.0886757 0.559254 0.0349997
358 1 0.0909215 0.565909 0.0349997
389 1 0.0927251 0.552772 0.0349997
390 1 0.0949605 0.559012 0.0349997
422 1 0.0967205 0.545438 0.0349997
423 1 0.0989547 0.551655 0.0349997
424 1 0.0994263 0.571546 0.0349997
456 1 0.10294 0.544215 0.0349997
457 1 0.10342 0.56412 0.0349997
491 1 0.10566 0.570336 0.0349997
490 1 0.107409 0.556658 0.0349997
519 1 0.109649 0.562878 0.0349997
518 1 0.111396 0.549186 0.0349997
533 1 0.113637 0.555409 0.0349997
534 1 0.114128 0.575318 0.0349997
826 1 0.115382 0.541712 0.0349997
858 1 0.117624 0.547937 0.0349997
859 1 0.118118 0.567846 0.0349997
860 1 0.120361 0.574067 0.0349997
892 1 0.121612 0.540465 0.0349997
893 1 0.122107 0.560374 0.0349997
894 1 0.124351 0.566596 0.0349997
291 1 0.0829741 0.579196 0.0349997
292 1 0.0833035 0.598773 0.0349997
325 1 0.0873431 0.592308 0.0349997
326 1 0.0855938 0.605946 0.0349997
359 1 0.0913878 0.585801 0.0349997
360 1 0.0896053 0.599051 0.0349997
392 1 0.0936411 0.592228 0.0349997
391 1 0.0954216 0.578864 0.0349997
393 1 0.0941237 0.612105 0.0349997
425 1 0.0976649 0.585117 0.0349997
426 1 0.0981419 0.604984 0.0349997
427 1 0.100387 0.61124 0.0349997
458 1 0.101667 0.577764 0.0349997
459 1 0.102147 0.597652 0.0349997
460 1 0.10439 0.603877 0.0349997
492 1 0.106144 0.590237 0.0349997
493 1 0.108387 0.596453 0.0349997
520 1 0.110137 0.582784 0.0349997
521 1 0.11238 0.589001 0.0349997
522 1 0.112869 0.608905 0.0349997
1071 1 0.115113 0.615121 0.0349997
827 1 0.116371 0.581537 0.0349997
828 1 0.116862 0.601443 0.0349997
862 1 0.119106 0.607659 0.0349997
861 1 0.120854 0.593974 0.0349997
896 1 0.123098 0.600192 0.0349997
895 1 0.124845 0.586503 0.0349997
535 1 0.0818105 0.614191 0.0349997
293 1 0.0822585 0.631589 0.0349997
294 1 0.0843638 0.640078 0.0349997
327 1 0.0860906 0.626 0.0349997
328 1 0.0883452 0.632583 0.0349997
329 1 0.0888472 0.652578 0.0349997
361 1 0.0900985 0.619029 0.0349997
362 1 0.0923517 0.625531 0.0349997
363 1 0.0928465 0.645462 0.0349997
394 1 0.096373 0.618468 0.0349997
395 1 0.096861 0.638356 0.0349997
396 1 0.0950968 0.651867 0.0349997
428 1 0.100872 0.631122 0.0349997
429 1 0.0991096 0.644672 0.0349997
461 1 0.104876 0.623768 0.0349997
462 1 0.103118 0.637374 0.0349997
495 1 0.107121 0.629995 0.0349997
494 1 0.108874 0.616352 0.0349997
496 1 0.10761 0.649888 0.0349997
523 1 0.111118 0.62257 0.0349997
524 1 0.111609 0.642469 0.0349997
525 1 0.113854 0.648688 0.0349997
829 1 0.115605 0.635023 0.0349997
830 1 0.11785 0.641239 0.0349997
863 1 0.119599 0.627564 0.0349997
864 1 0.121844 0.633779 0.0349997
865 1 0.122338 0.653682 0.0349997
897 1 0.123592 0.620097 0.0349997
296 1 0.0832126 0.673623 0.0349997
295 1 0.0848579 0.659914 0.0349997
330 1 0.0871147 0.666358 0.0349997
331 1 0.0875873 0.686314 0.0349997
364 1 0.0910926 0.65904 0.0349997
365 1 0.0915861 0.679037 0.0349997
366 1 0.0938371 0.685391 0.0349997
397 1 0.095592 0.671793 0.0349997
398 1 0.0978411 0.678134 0.0349997
430 1 0.0996007 0.664567 0.0349997
431 1 0.101849 0.670853 0.0349997
432 1 0.102343 0.690751 0.0349997
463 1 0.103607 0.657264 0.0349997
464 1 0.105854 0.663511 0.0349997
465 1 0.106346 0.683404 0.0349997
497 1 0.109856 0.656116 0.0349997
498 1 0.110347 0.676012 0.0349997
499 1 0.108593 0.689647 0.0349997
526 1 0.114346 0.668586 0.0349997
527 1 0.112594 0.682239 0.0349997
831 1 0.118342 0.66114 0.0349997
832 1 0.116592 0.674806 0.0349997
866 1 0.120588 0.667356 0.0349997
867 1 0.121082 0.687257 0.0349997
900 1 0.124583 0.659898 0.0349997
297 1 0.0835329 0.693071 0.0349997
273 1 0.0820365 0.708423 0.0349997
274 1 0.082493 0.725795 0.0349997
298 1 0.085836 0.699945 0.0349997
299 1 0.0863336 0.719904 0.0349997
334 1 0.0885914 0.726293 0.0349997
332 1 0.0898421 0.692694 0.0349997
333 1 0.0903377 0.71265 0.0349997
368 1 0.0925876 0.718984 0.0349997
367 1 0.0943365 0.705331 0.0349997
400 1 0.0965846 0.711663 0.0349997
399 1 0.0983384 0.698049 0.0349997
433 1 0.100587 0.704353 0.0349997
434 1 0.101084 0.724264 0.0349997
435 1 0.103332 0.730545 0.0349997
466 1 0.104591 0.69702 0.0349997
467 1 0.105086 0.71692 0.0349997
468 1 0.107334 0.723177 0.0349997
500 1 0.109087 0.709544 0.0349997
501 1 0.111334 0.715782 0.0349997
528 1 0.113087 0.702136 0.0349997
809 1 0.115334 0.708363 0.0349997
810 1 0.115829 0.728261 0.0349997
833 1 0.117085 0.694705 0.0349997
834 1 0.119332 0.700924 0.0349997
835 1 0.119826 0.720823 0.0349997
868 1 0.123328 0.693473 0.0349997
869 1 0.123823 0.713374 0.0349997
870 1 0.122073 0.727043 0.0349997
275 1 0.0834585 0.767392 0.0349997
300 1 0.0846114 0.734004 0.0349997
301 1 0.0851102 0.753753 0.0349997
302 1 0.0873663 0.760081 0.0349997
335 1 0.0890945 0.746252 0.0349997
336 1 0.0913397 0.752592 0.0349997
369 1 0.0930855 0.738922 0.0349997
370 1 0.0953335 0.74524 0.0349997
371 1 0.095831 0.765179 0.0349997
401 1 0.0970834 0.731592 0.0349997
402 1 0.0993311 0.737894 0.0349997
403 1 0.0998293 0.757816 0.0349997
437 1 0.102077 0.764096 0.0349997
436 1 0.103829 0.750454 0.0349997
470 1 0.106077 0.756718 0.0349997
469 1 0.10783 0.743078 0.0349997
503 1 0.110077 0.749325 0.0349997
504 1 0.110574 0.769228 0.0349997
502 1 0.11183 0.735681 0.0349997
529 1 0.114077 0.741914 0.0349997
530 1 0.114573 0.761814 0.0349997
811 1 0.11682 0.768044 0.0349997
836 1 0.118075 0.734485 0.0349997
837 1 0.118571 0.754384 0.0349997
838 1 0.120818 0.760607 0.0349997
871 1 0.122569 0.746942 0.0349997
872 1 0.124815 0.753161 0.0349997
276 1 0.0837786 0.786817 0.0349997
277 1 0.0822812 0.802153 0.0349997
303 1 0.0878368 0.78 0.0349997
304 1 0.086084 0.793622 0.0349997
337 1 0.0918323 0.772577 0.0349997
338 1 0.0900919 0.786287 0.0349997
339 1 0.0905871 0.806222 0.0349997
372 1 0.0940825 0.778851 0.0349997
373 1 0.0945825 0.798788 0.0349997
374 1 0.0968299 0.805067 0.0349997
404 1 0.0980787 0.77147 0.0349997
405 1 0.0985786 0.791396 0.0349997
406 1 0.100826 0.79767 0.0349997
438 1 0.102576 0.784012 0.0349997
439 1 0.104824 0.790276 0.0349997
471 1 0.106575 0.776625 0.0349997
472 1 0.108822 0.782878 0.0349997
473 1 0.10932 0.802785 0.0349997
505 1 0.112821 0.775468 0.0349997
506 1 0.113319 0.79537 0.0349997
813 1 0.115566 0.801605 0.0349997
812 1 0.117317 0.787945 0.0349997
840 1 0.119564 0.794171 0.0349997
839 1 0.121315 0.780507 0.0349997
874 1 0.123562 0.786729 0.0349997
875 1 0.124059 0.806628 0.0349997
278 1 0.0827399 0.819518 0.0349997
279 1 0.0848615 0.827656 0.0349997
305 1 0.0865828 0.813553 0.0349997
306 1 0.0888417 0.819883 0.0349997
307 1 0.0893454 0.839823 0.0349997
340 1 0.0928372 0.812489 0.0349997
341 1 0.0933352 0.832415 0.0349997
342 1 0.0915912 0.84611 0.0349997
375 1 0.0973298 0.824997 0.0349997
376 1 0.0955831 0.838683 0.0349997
407 1 0.101325 0.817591 0.0349997
408 1 0.0995769 0.831264 0.0349997
440 1 0.105322 0.810189 0.0349997
441 1 0.103573 0.823853 0.0349997
442 1 0.104072 0.84377 0.0349997
474 1 0.10757 0.816443 0.0349997
475 1 0.108069 0.836354 0.0349997
476 1 0.110316 0.842599 0.0349997
507 1 0.111568 0.809029 0.0349997
508 1 0.112066 0.828934 0.0349997
509 1 0.114314 0.835172 0.0349997
814 1 0.116064 0.821508 0.0349997
815 1 0.118311 0.827737 0.0349997
841 1 0.120061 0.814072 0.0349997
842 1 0.122309 0.820296 0.0349997
843 1 0.122806 0.840197 0.0349997
281 1 0.0837084 0.861004 0.0349997
282 1 0.0840286 0.880424 0.0349997
280 1 0.0853616 0.847383 0.0349997
308 1 0.087618 0.853667 0.0349997
309 1 0.0880884 0.87357 0.0349997
310 1 0.0903444 0.879806 0.0349997
343 1 0.0920839 0.866081 0.0349997
344 1 0.0943345 0.872313 0.0349997
377 1 0.096081 0.858618 0.0349997
378 1 0.0983285 0.864874 0.0349997
409 1 0.100076 0.851189 0.0349997
410 1 0.102323 0.857445 0.0349997
411 1 0.102823 0.877365 0.0349997
443 1 0.106319 0.850022 0.0349997
445 1 0.105071 0.883614 0.0349997
444 1 0.106819 0.869936 0.0349997
477 1 0.110815 0.862508 0.0349997
478 1 0.109066 0.87618 0.0349997
510 1 0.114812 0.855077 0.0349997
511 1 0.113063 0.868746 0.0349997
816 1 0.118809 0.84764 0.0349997
817 1 0.11706 0.861308 0.0349997
818 1 0.117558 0.881212 0.0349997
844 1 0.121057 0.853866 0.0349997
845 1 0.121555 0.873768 0.0349997
846 1 0.123802 0.879991 0.0349997
268 1 0.082533 0.895772 0.0349997
269 1 0.0829907 0.913142 0.0349997
283 1 0.0863354 0.887199 0.0349997
284 1 0.0868355 0.907118 0.0349997
285 1 0.0851137 0.921245 0.0349997
312 1 0.0890963 0.913394 0.0349997
311 1 0.0908407 0.899725 0.0349997
346 1 0.0930915 0.905956 0.0349997
345 1 0.0948351 0.892241 0.0349997
380 1 0.0970826 0.898491 0.0349997
381 1 0.0975833 0.918417 0.0349997
379 1 0.098829 0.884799 0.0349997
412 1 0.101076 0.89105 0.0349997
413 1 0.101576 0.910971 0.0349997
414 1 0.103823 0.917217 0.0349997
446 1 0.10557 0.90353 0.0349997
447 1 0.107817 0.909772 0.0349997
479 1 0.109565 0.896092 0.0349997
480 1 0.111813 0.902329 0.0349997
481 1 0.112312 0.922239 0.0349997
512 1 0.113562 0.888654 0.0349997
804 1 0.115809 0.894886 0.0349997
805 1 0.116308 0.914792 0.0349997
819 1 0.119806 0.88744 0.0349997
821 1 0.118555 0.921018 0.0349997
820 1 0.120304 0.907343 0.0349997
847 1 0.124301 0.899892 0.0349997
848 1 0.122552 0.913566 0.0349997
270 1 0.0839844 0.954687 0.0349997
286 1 0.0856204 0.94094 0.0349997
287 1 0.0878806 0.94713 0.0349997
313 1 0.0896038 0.933316 0.0349997
314 1 0.0918505 0.939575 0.0349997
315 1 0.0923471 0.959528 0.0349997
347 1 0.0935915 0.925869 0.0349997
348 1 0.0958389 0.932121 0.0349997
349 1 0.0963376 0.95205 0.0349997
382 1 0.0998297 0.924665 0.0349997
383 1 0.100329 0.94459 0.0349997
384 1 0.0985832 0.958294 0.0349997
416 1 0.102575 0.950831 0.0349997
415 1 0.104322 0.937136 0.0349997
449 1 0.106569 0.943374 0.0349997
448 1 0.108317 0.929686 0.0349997
482 1 0.110564 0.935921 0.0349997
483 1 0.111063 0.955833 0.0349997
513 1 0.114559 0.928469 0.0349997
514 1 0.115058 0.948377 0.0349997
806 1 0.117306 0.954602 0.0349997
822 1 0.119054 0.940923 0.0349997
823 1 0.121302 0.947145 0.0349997
849 1 0.123051 0.933468 0.0349997
272 1 0.0826801 0.987931 0.0349997
271 1 0.0843393 0.974224 0.0349997
288 1 0.0883636 0.967026 0.0349997
289 1 0.0866252 0.980707 0.0349997
316 1 0.0906099 0.973282 0.0349997
317 1 0.0910923 0.993209 0.0349997
318 1 0.093342 0.999425 0.0349997
350 1 0.0945933 0.965762 0.0349997
351 1 0.0950868 0.9857 0.0349997
352 1 0.0973335 0.99193 0.0349997
385 1 0.0990802 0.978222 0.0349997
386 1 0.101327 0.984454 0.0349997
417 1 0.103073 0.970753 0.0349997
418 1 0.10532 0.976985 0.0349997
419 1 0.105819 0.996902 0.0349997
450 1 0.107068 0.963291 0.0349997
451 1 0.109315 0.96952 0.0349997
452 1 0.109814 0.989433 0.0349997
484 1 0.11331 0.96206 0.0349997
485 1 0.113809 0.981969 0.0349997
486 1 0.112061 0.995656 0.0349997
808 1 0.116057 0.98819 0.0349997
807 1 0.117805 0.974507 0.0349997
825 1 0.120052 0.980727 0.0349997
853 1 0.124548 0.993168 0.0349997
852 1 0.124049 0.973267 0.0349997
824 1 0.121801 0.967048 0.0349997
655 1 0.127296 0.0192845 0.0349997
656 1 0.125547 0.0329639 0.0349997
688 1 0.131292 0.0118221 0.0349997
689 1 0.129543 0.0254998 0.0349997
722 1 0.133539 0.0180376 0.0349997
721 1 0.135288 0.00436076 0.0349997
723 1 0.134039 0.0379355 0.0349997
755 1 0.137535 0.0105762 0.0349997
756 1 0.138035 0.0304737 0.0349997
757 1 0.140283 0.0366894 0.0349997
783 1 0.141531 0.00311548 0.0349997
784 1 0.142031 0.0230128 0.0349997
785 1 0.144278 0.0292286 0.0349997
799 1 0.146026 0.0155518 0.0349997
1123 1 0.150022 0.00809088 0.0349997
1336 1 0.148274 0.0217677 0.0349997
1124 1 0.152269 0.0143073 0.0349997
1125 1 0.152769 0.0342048 0.0349997
1157 1 0.154017 0.000630088 0.0349997
1158 1 0.156264 0.00684637 0.0349997
1159 1 0.156764 0.0267441 0.0349997
1192 1 0.159011 0.0329612 0.0349997
1191 1 0.160759 0.0192831 0.0349997
1225 1 0.163006 0.0255004 0.0349997
1224 1 0.164754 0.011822 0.0349997
1257 1 0.168748 0.00436046 0.0349997
1258 1 0.167 0.0180394 0.0349997
1259 1 0.1675 0.0379377 0.0349997
1291 1 0.170995 0.0105779 0.0349997
1292 1 0.171495 0.0304764 0.0349997
1293 1 0.173741 0.0366944 0.0349997
1319 1 0.17499 0.00311607 0.0349997
1320 1 0.175489 0.023015 0.0349997
1321 1 0.177736 0.0292331 0.0349997
1335 1 0.179483 0.0155533 0.0349997
1872 1 0.18173 0.0217716 0.0349997
1659 1 0.183478 0.00809155 0.0349997
1660 1 0.185724 0.0143097 0.0349997
1661 1 0.186224 0.034209 0.0349997
1693 1 0.187472 0.000629319 0.0349997
657 1 0.126047 0.0528633 0.0349997
658 1 0.128295 0.0590772 0.0349997
690 1 0.130043 0.0453983 0.0349997
691 1 0.132291 0.051613 0.0349997
692 1 0.132791 0.0715104 0.0349997
724 1 0.136287 0.0441507 0.0349997
725 1 0.136787 0.0640479 0.0349997
758 1 0.140783 0.0565864 0.0349997
759 1 0.139035 0.0702635 0.0349997
786 1 0.144778 0.0491257 0.0349997
787 1 0.14303 0.0628025 0.0349997
801 1 0.147026 0.0553419 0.0349997
802 1 0.147526 0.0752391 0.0349997
1094 1 0.148774 0.041665 0.0349997
1126 1 0.151021 0.0478819 0.0349997
1127 1 0.151521 0.0677793 0.0349997
1128 1 0.153768 0.073997 0.0349997
1160 1 0.155016 0.0404218 0.0349997
1161 1 0.155516 0.0603195 0.0349997
1162 1 0.157763 0.0665372 0.0349997
1193 1 0.159511 0.0528591 0.0349997
1194 1 0.161758 0.0590768 0.0349997
1226 1 0.163505 0.0453985 0.0349997
1227 1 0.165752 0.0516164 0.0349997
1228 1 0.166252 0.0715147 0.0349997
1260 1 0.169747 0.0441556 0.0349997
1261 1 0.170247 0.0640541 0.0349997
1295 1 0.172493 0.0702726 0.0349997
1294 1 0.174241 0.0565932 0.0349997
1323 1 0.176488 0.0628117 0.0349997
1322 1 0.178235 0.0491321 0.0349997
1337 1 0.180482 0.0553507 0.0349997
1338 1 0.180982 0.0752498 0.0349997
1630 1 0.18223 0.0416707 0.0349997
1662 1 0.184476 0.0478892 0.0349997
1663 1 0.184976 0.0677884 0.0349997
1664 1 0.187223 0.0740073 0.0349997
659 1 0.128795 0.0789751 0.0349997
660 1 0.127047 0.0926551 0.0349997
661 1 0.127548 0.112552 0.0349997
693 1 0.131043 0.0851889 0.0349997
694 1 0.131544 0.105086 0.0349997
695 1 0.133792 0.1113 0.0349997
726 1 0.135039 0.0777252 0.0349997
727 1 0.13554 0.0976221 0.0349997
728 1 0.137787 0.103838 0.0349997
760 1 0.139535 0.0901604 0.0349997
761 1 0.141783 0.0963769 0.0349997
788 1 0.14353 0.0826994 0.0349997
789 1 0.145778 0.0889161 0.0349997
790 1 0.146278 0.108813 0.0349997
1095 1 0.149773 0.0814565 0.0349997
1096 1 0.150273 0.101354 0.0349997
1339 1 0.148526 0.115031 0.0349997
1129 1 0.154268 0.0938946 0.0349997
1130 1 0.15252 0.107572 0.0349997
1163 1 0.158263 0.086435 0.0349997
1164 1 0.156515 0.100113 0.0349997
1196 1 0.16051 0.0926534 0.0349997
1195 1 0.162257 0.078975 0.0349997
1197 1 0.16101 0.112551 0.0349997
1229 1 0.164504 0.0851933 0.0349997
1230 1 0.165004 0.105092 0.0349997
1231 1 0.167251 0.111311 0.0349997
1262 1 0.168499 0.0777333 0.0349997
1263 1 0.168999 0.0976319 0.0349997
1264 1 0.171246 0.103851 0.0349997
1296 1 0.172993 0.0901713 0.0349997
1297 1 0.17524 0.0963902 0.0349997
1324 1 0.176987 0.0827106 0.0349997
1325 1 0.179234 0.0889296 0.0349997
1326 1 0.179734 0.108829 0.0349997
1875 1 0.18198 0.115048 0.0349997
1631 1 0.183228 0.0814686 0.0349997
1632 1 0.183728 0.101368 0.0349997
1666 1 0.185975 0.107587 0.0349997
630 1 0.1258 0.126233 0.0349997
631 1 0.126302 0.14613 0.0349997
664 1 0.12855 0.152341 0.0349997
662 1 0.129796 0.118765 0.0349997
663 1 0.130297 0.138661 0.0349997
697 1 0.132545 0.144875 0.0349997
696 1 0.134293 0.131197 0.0349997
730 1 0.13654 0.137412 0.0349997
729 1 0.138288 0.123734 0.0349997
763 1 0.140536 0.129951 0.0349997
764 1 0.141037 0.149848 0.0349997
762 1 0.142283 0.116274 0.0349997
791 1 0.144531 0.122491 0.0349997
792 1 0.145031 0.142388 0.0349997
793 1 0.147279 0.148607 0.0349997
1097 1 0.149026 0.134928 0.0349997
1098 1 0.151273 0.141148 0.0349997
1131 1 0.153021 0.12747 0.0349997
1132 1 0.155268 0.133689 0.0349997
1133 1 0.155768 0.153587 0.0349997
1165 1 0.157015 0.120011 0.0349997
1166 1 0.159262 0.12623 0.0349997
1167 1 0.159762 0.146128 0.0349997
1198 1 0.163257 0.118771 0.0349997
1199 1 0.163757 0.138669 0.0349997
1200 1 0.162009 0.152348 0.0349997
1232 1 0.167751 0.131209 0.0349997
1233 1 0.166004 0.144889 0.0349997
1265 1 0.171745 0.123749 0.0349997
1266 1 0.169998 0.137429 0.0349997
1299 1 0.173992 0.129969 0.0349997
1298 1 0.17574 0.116289 0.0349997
1300 1 0.174492 0.149868 0.0349997
1327 1 0.177986 0.122509 0.0349997
1328 1 0.178486 0.142408 0.0349997
1329 1 0.180733 0.148628 0.0349997
1633 1 0.18248 0.134947 0.0349997
1634 1 0.184727 0.141167 0.0349997
1667 1 0.186474 0.127487 0.0349997
634 1 0.127304 0.185917 0.0349997
665 1 0.129051 0.172237 0.0349997
633 1 0.125056 0.179706 0.0349997
666 1 0.131299 0.178451 0.0349997
698 1 0.133047 0.164771 0.0349997
699 1 0.135294 0.170987 0.0349997
700 1 0.135796 0.190883 0.0349997
731 1 0.137042 0.157309 0.0349997
732 1 0.139289 0.163526 0.0349997
733 1 0.13979 0.183423 0.0349997
767 1 0.142038 0.189642 0.0349997
765 1 0.143284 0.156066 0.0349997
766 1 0.143785 0.175963 0.0349997
795 1 0.146032 0.182182 0.0349997
794 1 0.147779 0.168504 0.0349997
1100 1 0.150026 0.174724 0.0349997