LAMMPS data file via write_data, version 2 Aug 2023, timestep = 1406, units = metal

15528 atoms
2 atom types

6.2328017097006345 198.20098617595795 xlo xhi
5.881767103938213 171.29344002360418 ylo yhi
-100 100 zlo zhi

Masses

1 28.085
2 15.999

Atoms # full

6794 1 1 0 6.594056205374721 6.194288387284577 -1.642245163696495 0 0 0
9568 1 2 0 7.99043741840494 6.719397293229511 -2.291773606245227 0 0 0
6792 1 1 0 9.484642651038769 6.600710955824475 -1.6442913807375732 0 0 0
9564 1 2 0 10.067895633747495 8.068469430035671 -2.123271302412167 0 0 0
6790 1 1 0 11.387084191008766 8.924586824759478 -1.633832047250797 0 0 0
9563 1 2 0 11.435830817369403 10.445417672776113 -2.261561386350388 0 0 0
13262 1 2 0 9.52545373829698 6.526085339615764 -2.243583312602655e-07 0 0 0
13260 1 2 0 11.462187953986895 9.064599755793743 -3.1199311969500357e-07 0 0 0
9565 1 2 0 12.618340171968757 8.01563379847576 -2.2375965667802094 0 0 0
6797 1 1 0 13.262739441655489 6.620782743854766 -1.6457163473745358 0 0 0
9577 1 2 0 14.732466741247707 6.720611180413795 -2.3278898162734314 0 0 0
6801 1 1 0 16.150743829968086 6.3462648635155325 -1.6424711858044394 0 0 0
9584 1 2 0 17.098773337150735 7.578271481698582 -2.1537030537585635 0 0 0
13267 1 2 0 13.223677747509448 6.6772456416903445 -2.1508372042132193e-07 0 0 0
9585 1 2 0 19.58504970962262 6.739828344115448 -2.231209889075091 0 0 0
6800 1 1 0 18.614087252558228 7.9303385362028935 -1.6372453134203104 0 0 0
9580 1 2 0 18.96010555275684 9.389424578533477 -2.280981336486601 0 0 0
6798 1 1 0 19.40246046672986 10.848306797832171 -1.647270869968007 0 0 0
9581 1 2 0 20.98038915525597 10.977387013006394 -2.181945222146824 0 0 0
6806 1 1 0 22.55181649546063 11.134749226351719 -1.6448026315819655 0 0 0
13268 1 2 0 19.40904296669556 10.903412258232112 -2.2041107590525747e-07 0 0 0
6816 1 1 0 25.099160266921476 6.449590268557465 -1.6406100682168037 0 0 0
9604 1 2 0 24.85685877899029 7.9932848038877875 -2.150836250473354 0 0 0
9609 1 2 0 26.596422843777628 6.231488696339706 -2.2810350621745745 0 0 0
9593 1 2 0 23.784307238959098 10.180172702462794 -2.196681702054036 0 0 0
6813 1 1 0 25.210485244784092 9.532754032445478 -1.6431286552455482 0 0 0
9603 1 2 0 26.709385220501694 10.141930175507834 -2.174356931610461 0 0 0
9611 1 2 0 29.200569685099033 6.963032919929249 -2.145273481928483 0 0 0
6818 1 1 0 30.783993779033203 6.832381909052408 -1.64449693352009 0 0 0
9612 1 2 0 31.828552466150498 7.974194567626894 -2.225295776483589 0 0 0
6820 1 1 0 33.30515865376874 8.48093854143171 -1.644763401820422 0 0 0
9615 1 2 0 33.603904587832616 9.991786436265139 -2.21659222068382 0 0 0
13288 1 2 0 30.81972190900017 6.892434344707247 -5.855618664165224e-07 0 0 0
13290 1 2 0 33.2876906136395 8.45849176539417 -2.6924500707457945e-07 0 0 0
9616 1 2 0 34.5423454449433 7.554636677186948 -2.21954444634173 0 0 0
6825 1 1 0 35.93108377852163 6.878653885661563 -1.6455795366423414 0 0 0
9623 1 2 0 37.264639737926494 7.666342741672357 -2.2180296583354604 0 0 0
9629 1 2 0 39.95964772891326 7.579233133955454 -2.220064464034703 0 0 0
6828 1 1 0 38.63657761134349 8.384502591424917 -1.6439222997772924 0 0 0
9627 1 2 0 38.66225911528393 9.928717503880083 -2.2230973049387592 0 0 0
6875 1 1 0 41.22051716975419 6.682374213769426 -1.644715249991017 0 0 0
9653 1 2 0 42.6409190921868 7.28805996922651 -2.2237780109054537 0 0 0
6841 1 1 0 44.00729618971506 8.006486293443908 -1.6442499823372043 0 0 0
9652 1 2 0 45.32042712363002 7.180302572270568 -2.221312286697345 0 0 0
9650 1 2 0 44.00282745434247 9.55245369367473 -2.219012152479712 0 0 0
6840 1 1 0 44.07533514704279 11.09819259127545 -1.6441589339799216 0 0 0
13345 1 2 0 41.23423249271533 6.69840467614548 -1.756879246899754e-07 0 0 0
13311 1 2 0 44.03204259739389 8.006263010805965 -4.7810175048429223e-08 0 0 0
6842 1 1 0 46.60562707225625 6.316646999462532 -1.6436470283239686 0 0 0
6839 1 1 0 49.42419192512276 7.508821865211929 -1.6438490950288993 0 0 0
9648 1 2 0 48.002735944811924 6.939359805345566 -2.2347906116099865 0 0 0
9649 1 2 0 50.66370899736271 6.568353514919478 -2.217321858319873 0 0 0
9638 1 2 0 49.466992331281524 9.051948005289624 -2.2190291274140668 0 0 0
6833 1 1 0 49.471956165958666 10.596829195196296 -1.6436797857722554 0 0 0
9637 1 2 0 50.891199529043284 11.195503587042188 -2.2224470377788212 0 0 0
9657 1 2 0 53.32298629012034 6.334635362871993 -2.2315174894903183 0 0 0
9642 1 2 0 53.58898498344691 10.83409129743918 -2.2104877716530207 0 0 0
6844 1 1 0 54.764950363359404 6.85326604980504 -1.6438539163867716 0 0 0
6843 1 1 0 54.875842784254765 9.945830863715198 -1.643984998363415 0 0 0
9655 1 2 0 54.8766664603757 8.397466130745384 -2.2162515936748752 0 0 0
9656 1 2 0 56.285734055335766 10.575840865501284 -2.219844117245506 0 0 0
6853 1 1 0 60.03333002533567 6.186262023412158 -1.6438956248303151 0 0 0
9672 1 2 0 60.19167653759768 7.728174373715656 -2.2168809271510757 0 0 0
9666 1 2 0 58.9756806419454 10.165587539409163 -2.212682750868098 0 0 0
6854 1 1 0 60.25696062169142 9.277277478229932 -1.6443313856263622 0 0 0
9674 1 2 0 61.667578449392686 9.915201744340282 -2.2176064963414714 0 0 0
6849 1 1 0 57.73471054286885 11.107426828887217 -1.6439937362043984 0 0 0
13319 1 2 0 57.75168377529913 11.089749076000285 -1.2015971917495097e-07 0 0 0
11840 1 2 0 65.48994995020766 7.135748933566214 -2.2155583429465366 0 0 0
8277 1 1 0 63.099414666697896 10.50260350242802 -1.6441061471278675 0 0 0
8279 1 1 0 65.62233425358511 8.68423448911259 -1.6444700914195618 0 0 0
11838 1 2 0 64.35394196442195 9.584652294762641 -2.214118740665878 0 0 0
11841 1 2 0 67.0379039680433 9.326236905923194 -2.2116148561269435 0 0 0
14749 1 2 0 65.6178516414748 8.687088509152389 -7.068854514815471e-08 0 0 0
8284 1 1 0 70.96714282622877 8.115682116845216 -1.6446169167486528 0 0 0
11848 1 2 0 70.7566129459579 6.567821964938259 -2.2102904071815526 0 0 0
8281 1 1 0 68.46007514706143 9.954336524124646 -1.6443234990602433 0 0 0
11844 1 2 0 69.720111497752 9.044833178623332 -2.2134162073851074 0 0 0
11849 1 2 0 72.39489347516324 8.754006933637033 -2.199911975720207 0 0 0
8289 1 1 0 73.82144770654867 9.400176587773325 -1.644574662183619 0 0 0
14759 1 2 0 73.82379370780245 9.40311495362175 -4.628349650918603e-08 0 0 0
8292 1 1 0 76.261188112403 7.464282947773227 -1.6441643561591588 0 0 0
11862 1 2 0 77.72355375435669 8.034872358489444 -2.183998536886821 0 0 0
11861 1 2 0 75.96994521114004 5.925880766997364 -2.210749445358212 0 1 0
11857 1 2 0 75.07020713466783 8.468744201382648 -2.2112376722127123 0 0 0
8296 1 1 0 79.2047022950954 8.576161601121024 -1.6462523320400602 0 0 0
11867 1 2 0 79.42990806845347 10.162848768791012 -2.1738782688774907 0 0 0
11856 1 2 0 74.01594532179665 10.953523587358175 -2.2015716000609467 0 0 0
11868 1 2 0 80.33803002919959 7.453676866030001 -2.1955274331339094 0 0 0
8299 1 1 0 81.18538346379344 6.11561068757952 -1.6408974470999893 0 0 0
11872 1 2 0 82.73371802602068 6.046598706497764 -2.208892256041912 0 0 0
11875 1 2 0 85.02001813679647 7.071807159349828 -2.2165052330395794 0 0 0
11874 1 2 0 85.17877163324557 9.821952326376993 -2.186424867992068 0 0 0
14769 1 2 0 81.16168650682629 6.204748056212998 -2.1181524653039677e-07 0 0 0
11876 1 2 0 87.34088269548023 8.015343173296571 -2.2435567647230577 0 0 0
8306 1 1 0 88.85862667145322 7.834925566603728 -1.634078937486181 0 0 0
11885 1 2 0 89.7319798055177 6.555492433744007 -2.2209168671074075 0 0 0
8300 1 1 0 85.83944150735941 8.3789220528529 -1.6463470492087648 0 0 0
11884 1 2 0 89.6002073506569 9.19449495044782 -2.1558516022309937 0 0 0
8307 1 1 0 89.92400511551475 10.710102189863468 -1.6363251599310393 0 0 0
14770 1 2 0 85.86455472544863 8.428131798635578 -1.8201464778996418e-07 0 0 0
11892 1 2 0 92.46266997340462 6.352550127078651 -2.1764826696248036 0 0 0
8312 1 1 0 93.6903154796407 7.349020013547344 -1.6456967826893827 0 0 0
11895 1 2 0 95.15420802248099 6.757943567086038 -2.19673824069426 0 0 0
11894 1 2 0 93.41100798418213 8.900601212155086 -2.2085742101002346 0 0 0
8313 1 1 0 92.89961372827892 10.381507732359946 -1.64444666867111 0 0 0
11887 1 2 0 91.44351719323002 10.912876469316375 -2.2213227005624376 0 0 0
14783 1 2 0 92.87127865210192 10.300864476613857 -4.3156051986269447e-08 0 0 0
8316 1 1 0 96.65178595155713 6.260178310296275 -1.6451992021158288 0 0 0
11900 1 2 0 97.79870486167627 7.31867145431369 -2.2150876631193155 0 0 0
8317 1 1 0 99.13046104447348 8.120557397257375 -1.6491024195415374 0 0 0
6478 1 1 0 102.00781777654058 7.59368884572699 -1.616434052250423 0 0 0
9073 1 2 0 100.48112359779894 7.28794924642045 -2.1971914726601667 0 0 0
9181 1 2 0 99.10432476379528 9.684922082098883 -2.209243647874135 0 0 0
6542 1 1 0 99.30050324175232 11.233286278923313 -1.6473828688071543 0 0 0
12948 1 2 0 101.97225281125546 7.287186462262474 -3.889440273511898e-07 0 0 0
14787 1 2 0 99.10770366149569 8.137136140434869 -6.393081910403476e-07 0 0 0
13012 1 2 0 99.32326369389914 11.217085019948861 -1.5683516439599015e-07 0 0 0
9063 1 2 0 102.20223012885025 9.179071975569995 -2.041703180173 0 0 0
6793 1 1 0 8.145237203271043 12.740822285856357 -1.6295250082918304 0 0 0
9570 1 2 0 6.79557259759411 11.912004457943295 -2.2109396859967037 0 0 0
9566 1 2 0 9.713507549548853 12.435308499158458 -2.1683235021910225 0 0 0
6791 1 1 0 11.261308967511901 11.984646104126888 -1.6490878120887273 0 0 0
9571 1 2 0 7.840050121406366 14.291384011562533 -2.0965546668772923 0 0 0
6858 1 1 0 6.820600481346854 15.504562558808393 -1.6350248580984015 0 0 0
9679 1 2 0 7.613496003560695 16.8370866170731 -2.2387801990440335 0 0 0
13328 1 2 0 6.72108675898173 15.646944589906786 -4.6866071243735943e-07 0 0 0
9567 1 2 0 12.638292784758796 12.831043627979657 -2.1607987761382557 0 0 0
6802 1 1 0 14.029987771596833 13.650884673612762 -1.6454099629356065 0 0 0
9582 1 2 0 15.547472858906703 13.072067249122764 -2.153271125391606 0 0 0
9587 1 2 0 13.872283447557958 15.226134198944518 -2.185576687014646 0 0 0
6799 1 1 0 17.166405327769876 13.105226795675657 -1.6440759800233646 0 0 0
6855 1 1 0 13.85451364273079 16.798436592942142 -1.6433291258712934 0 0 0
13269 1 2 0 17.13791679445709 13.037936973945532 -1.9353407434978432e-07 0 0 0
13272 1 2 0 14.037850857709163 13.582939797652976 -1.142950210147671e-07 0 0 0
9579 1 2 0 18.22038742871805 11.911094719501516 -2.1812234125744303 0 0 0
9592 1 2 0 23.08322858970694 12.526523853488095 -2.323300849319084 0 0 0
9583 1 2 0 17.882414210310657 14.495102082257908 -2.200838647592502 0 0 0
9594 1 2 0 22.164016234854827 14.802663380132918 -2.061346206128928 0 0 0
6808 1 1 0 18.585794156849246 15.880026550543793 -1.644311647011176 0 0 0
9596 1 2 0 20.07373455922789 16.211747314056026 -2.2739836440992685 0 0 0
6809 1 1 0 21.578803401756527 16.252305152325405 -1.623870431754272 0 0 0
13278 1 2 0 18.639566511912566 15.817160488666346 -3.249759421124647e-07 0 0 0
13279 1 2 0 21.48133313381378 16.50679668437387 -4.174145319321462e-07 0 0 0
9605 1 2 0 26.655664290299 12.654897679086348 -2.0189988443824824 0 0 0
6814 1 1 0 27.672038740100998 11.42777096588786 -1.6121240658229792 0 0 0
6807 1 1 0 23.466670654068114 13.941897476841554 -1.6305701404673325 0 0 0
9595 1 2 0 24.86789787551657 14.56756518614645 -2.2456487334662603 0 0 0
6815 1 1 0 26.354263266367692 14.20757665569022 -1.622237569422296 0 0 0
9607 1 2 0 27.547983862554055 15.124076715463959 -2.2747949544413766 0 0 0
6860 1 1 0 28.261913117714467 16.470297177209172 -1.6442744555378024 0 0 0
13330 1 2 0 28.248106572262635 16.476319338450047 -9.30694311635315e-08 0 0 0
9606 1 2 0 29.201125645584707 11.905223514136388 -2.185890406905612 0 0 0
9617 1 2 0 31.919835988751394 11.966738353645608 -2.2109012045175263 0 0 0
6822 1 1 0 30.57000013257404 12.739623848574267 -1.6457136953566252 0 0 0
6821 1 1 0 33.40497424545321 11.522636799631583 -1.6429278573564643 0 0 0
9619 1 2 0 30.859154527794605 14.300636702426646 -2.1747487842938025 0 0 0
9684 1 2 0 29.791383322482314 16.659394503520495 -2.1976492587647383 0 0 0
6865 1 1 0 31.11877847670151 15.858288110472452 -1.6396406566653412 0 0 0
9691 1 2 0 32.38545044097109 16.77048079077958 -2.217797055988167 0 0 0
13335 1 2 0 31.246247396981207 15.823995690650555 -5.234499264136132e-07 0 0 0
9618 1 2 0 34.661361877830196 12.446146770019975 -2.209427528354543 0 0 0
9625 1 2 0 37.37994722605178 12.295487794487384 -2.2126045199599726 0 0 0
6827 1 1 0 38.70121699911134 11.474284571985201 -1.6441208712636872 0 0 0
9628 1 2 0 40.08898354126073 12.16771349876831 -2.2115014827930173 0 0 0
6826 1 1 0 36.06563315544872 13.132628638877144 -1.645610420288754 0 0 0
9626 1 2 0 36.151229582836024 14.686230665374328 -2.214670517704719 0 0 0
6868 1 1 0 36.270784932284656 16.238045074569428 -1.6438031142989624 0 0 0
6872 1 1 0 41.490424285402895 12.834449098533714 -1.6443293011791738 0 0 0
9651 1 2 0 42.79022289490475 11.97611533425918 -2.2148014349812044 0 0 0
9640 1 2 0 45.49177170838524 11.718335817533719 -2.217512736349734 0 0 0
9701 1 2 0 41.543205295393186 14.383025738038727 -2.218416582181835 0 0 0
9702 1 2 0 40.33683601744782 16.812720627549325 -2.207720223143086 0 0 0
6873 1 1 0 41.6208022859102 15.931340221335942 -1.644167033494721 0 0 0
9703 1 2 0 43.029248479190706 16.57696283253119 -2.2163251475097083 0 0 0
9646 1 2 0 45.72830580323646 16.400096001720815 -2.204832445746119 0 0 0
6834 1 1 0 46.89609960570771 12.367972079001499 -1.644350856403637 0 0 0
9636 1 2 0 48.1903485923398 11.490114695388067 -2.210704055334388 0 0 0
9639 1 2 0 46.90655213808708 13.920033437475476 -2.212328183845144 0 0 0
6837 1 1 0 46.98971139665419 15.470983114074839 -1.6441406060915247 0 0 0
9645 1 2 0 48.43152311525763 16.040058858667976 -2.213746903551992 0 0 0
6838 1 1 0 49.85768691035189 16.647390444967296 -1.6443928503174834 0 0 0
9643 1 2 0 51.148497631837 15.755365044209555 -2.2054385579768243 0 0 0
13307 1 2 0 46.959511581620966 15.485381126914646 -1.969984781865985e-07 0 0 0
13308 1 2 0 49.88259098540483 16.631484472349072 -3.9676659948892126e-08 0 0 0
6835 1 1 0 52.32632597566272 11.755628466185653 -1.6439869535621436 0 0 0
6836 1 1 0 52.42538781300159 14.845561236796746 -1.6438989753348778 0 0 0
9641 1 2 0 52.376503906789985 13.300480393605682 -2.218289143507233 0 0 0
9644 1 2 0 53.86836675276665 15.404267951741371 -2.2167002225996324 0 0 0
9667 1 2 0 56.597462678658125 15.037772427833096 -2.211414079186556 0 0 0
6850 1 1 0 55.320475931543385 15.935318738383948 -1.6437660563808654 0 0 0
13320 1 2 0 55.33733973002521 15.905874368426586 -4.897868453215616e-07 0 0 0
9665 1 2 0 57.872577739946436 12.646061883272763 -2.2199160247685406 0 0 0
6851 1 1 0 57.90949998430727 14.19045018443835 -1.6441649931769293 0 0 0
9669 1 2 0 59.328598034387916 14.818683916198685 -2.213305134105347 0 0 0
9801 1 2 0 62.048097578526686 14.457152019912721 -2.211103402079672 0 0 0
6937 1 1 0 60.780803031967935 15.36506126037342 -1.6441195402606348 0 0 0
9800 1 2 0 60.93837229652709 16.901401312603635 -2.220777502483516 0 0 0
13321 1 2 0 57.88626779810996 14.209459702975227 -2.2124448889579305e-07 0 0 0
13407 1 2 0 60.78703507875043 15.339761701569934 -3.427682883851076e-08 0 0 0
11837 1 2 0 63.239604973959885 12.042983537566895 -2.2182537632956794 0 0 0
8278 1 1 0 63.3421682799937 13.587033147629539 -1.6442773070150878 0 0 0
11839 1 2 0 64.77011124393391 14.197080472363233 -2.2140428363484195 0 0 0
8283 1 1 0 66.19662159901078 14.811084109861582 -1.644163429860339 0 0 0
11845 1 2 0 67.4898469639216 13.939268712672298 -2.2090653983788484 0 0 0
11847 1 2 0 66.29587424665384 16.355834260933857 -2.2166405648401373 0 0 0
14748 1 2 0 63.33517663818037 13.606251250605949 -6.058939397498411e-08 0 0 0
14753 1 2 0 66.20707381011769 14.791767121634349 -6.487061397962926e-08 0 0 0
11843 1 2 0 68.61837464437544 11.4994093213377 -2.212939757265727 0 0 0
8282 1 1 0 68.76998770790024 13.046352619570424 -1.6444921872467302 0 0 0
11846 1 2 0 70.2026679197509 13.662313062068735 -2.206566730267547 0 0 0
8291 1 1 0 71.62692191511286 14.301001395003945 -1.6444962963660856 0 0 0
11858 1 2 0 72.91567255963524 13.415408728677198 -2.2022727105584754 0 0 0
11860 1 2 0 71.74401654019032 15.851742150509757 -2.213770829707734 0 0 0
8290 1 1 0 74.19380427847298 12.510989985937545 -1.644589365376469 0 0 0
8297 1 1 0 79.5336737908252 11.76433899337178 -1.6449899810311646 0 0 0
11869 1 2 0 78.28346640787451 12.754850124009295 -2.170944766517829 0 0 0
11859 1 2 0 75.62023596710148 13.165897098472225 -2.194580156253257 0 0 0
8298 1 1 0 77.06804354682653 13.78434190646533 -1.645213825010761 0 0 0
11871 1 2 0 77.22026935741067 15.370770078271091 -2.183008364153551 0 0 0
14760 1 2 0 74.20483178734165 12.509061599499049 -8.223499977105559e-08 0 0 0
14767 1 2 0 79.5170501018832 11.73190709858476 -3.722366960038279e-08 0 0 0
8301 1 1 0 84.9537473277582 11.398946331734807 -1.6409603955288374 0 0 0
11870 1 2 0 80.95001212413314 12.463199730516264 -2.182542227413856 0 0 0
11877 1 2 0 83.60928158202431 12.238363205981525 -2.189134986531287 0 0 0
8303 1 1 0 82.34412501804722 13.208661753412844 -1.6459189551174733 0 0 0
11880 1 2 0 82.37549553008452 14.820157186539214 -2.1593108608624854 0 0 0
8328 1 1 0 82.4560155578848 16.432113432294184 -1.6463971733892073 0 0 0
8308 1 1 0 87.71895397077309 12.83015013541171 -1.6454525373509103 0 0 0
11878 1 2 0 86.25669993568737 12.271026661488632 -2.1683853718029664 0 0 0
11886 1 2 0 88.91141654669657 11.854468526193191 -2.259065750596147 0 0 0
11888 1 2 0 87.95253972762538 14.356742967500697 -2.2409255820400316 0 0 0
11922 1 2 0 86.40776659167456 16.530283887102737 -2.152338989256462 0 0 0
8332 1 1 0 87.8395377698918 15.896492057967432 -1.6395780400168012 0 0 0
11923 1 2 0 89.03455532895998 16.877266381830815 -2.219641259141035 0 0 0
14778 1 2 0 87.75960582485385 12.83776696324914 -1.334769765424901e-07 0 0 0
11896 1 2 0 93.86192812227306 11.600304850763221 -2.202449270338558 0 0 0
8318 1 1 0 94.14492374544228 13.128472580365512 -1.644608928876507 0 0 0
11902 1 2 0 93.07395947514122 14.29616922613878 -2.1750190237528364 0 0 0
9183 1 2 0 95.6518274511749 13.43375669996373 -2.2311597473295026 0 0 0
11927 1 2 0 91.63956629930135 16.708378904888775 -2.2329838079289708 0 0 0
8335 1 1 0 92.93813600036898 15.870295574362597 -1.6437558159210244 0 0 0
11926 1 2 0 94.28039049440032 16.61871904907202 -2.234432374025532 0 0 0
14788 1 2 0 94.10770096656518 13.142075779590135 -1.838493312597994e-07 0 0 0
9180 1 2 0 98.04174794067032 12.149423680918263 -2.2117866285202967 0 0 0
9068 1 2 0 100.67255723949506 11.942846395929294 -2.2626852193662645 0 0 0
6475 1 1 0 102.12746193110686 12.393330903865262 -1.6386478251371601 0 0 0
6543 1 1 0 97.1851741110444 13.440144709763551 -1.6423495137115918 0 0 0
9182 1 2 0 97.84105140812038 14.838096765155294 -2.2108602646671107 0 0 0
6544 1 1 0 97.9958426455991 16.375812407964432 -1.646354264422356 0 0 0
9178 1 2 0 99.44237484217845 16.856388821079836 -2.2867962362569103 0 0 0
9176 1 2 0 102.19288493819104 16.60835999883703 -2.087320286559251 0 0 0
12945 1 2 0 101.99037305356529 12.343712440443108 -3.505243295387828e-08 0 0 0
13014 1 2 0 97.99516032830564 16.38799373990356 -1.5405726255791888e-07 0 0 0
9680 1 2 0 7.595064485769261 19.426309615594064 -2.185015730512589 0 0 0
6857 1 1 0 8.458103042093171 18.137236957283797 -1.6419563975530402 0 0 0
9677 1 2 0 10.011945101663828 18.327135431048724 -2.205281454523451 0 0 0
6856 1 1 0 11.506040241031473 18.804591267476397 -1.6456480880400688 0 0 0
6924 1 1 0 6.955030237855224 20.836944169671145 -1.6420416152108694 0 0 0
9778 1 2 0 7.9389985023368155 22.042171518889223 -2.2126855800463843 0 0 0
13326 1 2 0 11.520017321872775 18.818300809398707 -6.628700422722976e-08 0 0 0
9676 1 2 0 15.151666545013189 17.648487059402502 -2.2128640075247477 0 0 0
9675 1 2 0 12.547479699783908 17.64396709457649 -2.2116697720797025 0 0 0
6859 1 1 0 16.603991986107978 18.173484813406674 -1.6422065770749206 0 0 0
9682 1 2 0 17.02604718859417 19.64462294325601 -2.250933044809411 0 0 0
9678 1 2 0 11.953781512453643 20.330046021577466 -2.168446905572062 0 0 0
6904 1 1 0 12.03079260128579 21.92084156826985 -1.646176373703986 0 0 0
6903 1 1 0 17.276590143152486 21.155875491218787 -1.642307795329879 0 0 0
9749 1 2 0 15.972190340259619 22.01747611365486 -2.1537211618690555 0 0 0
13374 1 2 0 12.073203349558863 21.9434514692243 -2.9299991127555335e-07 0 0 0
13373 1 2 0 17.343437377894723 21.127756551923692 -8.965384176527768e-08 0 0 0
9597 1 2 0 17.722775074085735 17.139325185602694 -2.2281419942979337 0 0 0
9598 1 2 0 22.663615005714203 17.28447949315345 -2.3052040804815577 0 0 0
9686 1 2 0 22.702899026392565 19.76142489858062 -2.016446672734736 0 0 0
9750 1 2 0 18.67365163922521 21.814842745732257 -2.255955066349196 0 0 0
9755 1 2 0 21.410002735373688 21.805185628344613 -2.3422928615443497 0 0 0
6907 1 1 0 22.808501922922556 21.33362349998211 -1.6244316612649008 0 0 0
13377 1 2 0 22.794148518767052 21.617649315974894 -4.932340864130156e-07 0 0 0
6861 1 1 0 23.580627738659476 18.46011590616086 -1.6183893935288174 0 0 0
9685 1 2 0 25.07208809319592 18.663332872756637 -2.275314698620161 0 0 0
6862 1 1 0 26.568869348886565 18.93512651135966 -1.6460870078926988 0 0 0
9683 1 2 0 27.446634400100574 17.718866330307062 -2.2735721172145524 0 0 0
9756 1 2 0 24.238108544301475 21.887752649553132 -2.246473594313452 0 0 0
9687 1 2 0 27.34633551082129 20.24312725448782 -2.2515696885790515 0 0 0
6909 1 1 0 28.019581750061292 21.612159707255966 -1.638873401260607 0 0 0
6869 1 1 0 33.58085202480147 17.790175992845363 -1.6451154523430254 0 0 0
9697 1 2 0 33.48644188495422 19.37198773082051 -2.1838747696779794 0 0 0
9759 1 2 0 29.540679073670354 21.841207903109616 -2.2378143435622704 0 0 0
9764 1 2 0 32.27234443862613 21.81911012283283 -2.198279173233289 0 0 0
6913 1 1 0 33.59913928022243 20.955886311628305 -1.6462632701840334 0 0 0
9696 1 2 0 37.65741363819149 16.93759022397364 -2.2168101784980854 0 0 0
9695 1 2 0 35.00028758429354 17.13954743829599 -2.196728626817963 0 0 0
6874 1 1 0 39.03128882966663 17.665346260524814 -1.6442971075076673 0 0 0
9704 1 2 0 39.115822151698914 19.224711209671092 -2.202339374132383 0 0 0
9765 1 2 0 35.01308274178608 21.681711287293357 -2.179021546251204 0 0 0
6916 1 1 0 36.434039897179254 22.39316977230388 -1.6449091750134714 0 0 0
9767 1 2 0 37.759546224312665 21.547610725525917 -2.1957188184551324 0 0 0
6915 1 1 0 39.13483823852599 20.78968290332196 -1.6447384884228105 0 0 0
13344 1 2 0 39.01312267000983 17.664132245712526 -5.8628197178729584e-08 0 0 0
13386 1 2 0 36.414467104008445 22.39424220959725 -6.622503683506714e-10 0 0 0
13385 1 2 0 39.138783160656 20.799803126697892 -8.200805131521961e-09 0 0 0
6876 1 1 0 44.41935089570832 17.264133889377746 -1.6444608219038976 0 0 0
9706 1 2 0 44.4193043323597 18.824481824303152 -2.2025371886259135 0 0 0
9768 1 2 0 40.512875332722395 21.548886741915947 -2.1962627626818545 0 0 0
6918 1 1 0 41.94081122417339 22.21298907567048 -1.6448863900424167 0 0 0
6889 1 1 0 44.510192903947605 20.384263611139165 -1.644327578191719 0 0 0
9727 1 2 0 43.23526790904157 21.30887911815047 -2.1965213601254248 0 0 0
13388 1 2 0 41.941820716812245 22.19627689311226 -6.279156705378285e-08 0 0 0
9647 1 2 0 49.895019923856275 18.199450396202973 -2.212319685476641 0 0 0
6888 1 1 0 49.972906056389895 19.750958650298962 -1.6444219147333325 0 0 0
9726 1 2 0 45.96070123851339 20.96058987235717 -2.203337088586063 0 0 0
6890 1 1 0 47.397671040461375 21.567963926788284 -1.6446537068362999 0 0 0
9724 1 2 0 48.69301105409733 20.66829506673156 -2.197408862722984 0 0 0
13358 1 2 0 49.94546990418093 19.76599037708563 -6.576757591427915e-08 0 0 0
9736 1 2 0 54.15569253272093 19.849863059032764 -2.2116597016993556 0 0 0
9725 1 2 0 51.42544700707541 20.312475646277903 -2.208994109060383 0 0 0
6895 1 1 0 52.9063890843717 20.78705238907193 -1.643932990004106 0 0 0
9737 1 2 0 53.12823529520686 22.314139655341652 -2.219626284291266 0 0 0
9668 1 2 0 55.42533628404283 17.470428813591397 -2.224773777091037 0 0 0
6896 1 1 0 55.47023431668578 19.00840011527266 -1.6439022455885643 0 0 0
9738 1 2 0 56.90354024859192 19.59591720644741 -2.2165092946006375 0 0 0
6938 1 1 0 60.976189183372306 18.44545265779879 -1.6443189997888599 0 0 0
9796 1 2 0 59.641963613527594 19.250705861387267 -2.2134489397707418 0 0 0
9802 1 2 0 62.381304895708254 19.114200046389083 -2.2092705731231566 0 0 0
6934 1 1 0 58.356448309417104 20.129704553737195 -1.6436344768033362 0 0 0
9795 1 2 0 58.486179034297834 21.659180384848238 -2.229234229197135 0 0 0
13408 1 2 0 60.96261530360501 18.460552839968408 -4.760107037561396e-07 0 0 0
13404 1 2 0 58.365459464655004 20.095571532098152 -1.4363621801280118e-07 0 0 0
8342 1 1 0 63.83014622862708 19.683484069076936 -1.644387333187878 0 0 0
11935 1 2 0 65.09425983566211 18.76911611546675 -2.2103157226716506 0 0 0
8341 1 1 0 66.38961728407716 17.901046304380962 -1.644274710029592 0 0 0
11936 1 2 0 67.81225736400192 18.52027201808303 -2.21555134410737 0 0 0
11937 1 2 0 64.00495355089286 21.224681186666054 -2.2157143535330786 0 0 0
14812 1 2 0 63.83345260615063 19.659821090785645 -7.292916806344049e-09 0 0 0
14811 1 2 0 66.38470666758782 17.916988773343153 -4.828485479793415e-08 0 0 0
8343 1 1 0 71.8250019779451 17.40461743812357 -1.6442086174868462 0 0 0
8344 1 1 0 69.23460827101108 19.14036280799383 -1.6442512064688275 0 0 0
11938 1 2 0 70.52226037718894 18.26283582781132 -2.2117991617750814 0 0 0
11939 1 2 0 73.23066962894958 18.077818879032172 -2.199772783261375 0 0 0
11940 1 2 0 69.3328603904349 20.68619141298036 -2.2173248826259107 0 0 0
8375 1 1 0 69.33953018387594 22.233083059861173 -1.643476133516085 0 0 0
8329 1 1 0 77.22985143409166 16.9640598952256 -1.6446196872637038 0 0 0
8347 1 1 0 74.63448892464204 18.762931104651525 -1.6445280753950937 0 0 0
11919 1 2 0 75.91565459270744 17.843395859009323 -2.192100687027057 0 0 0
11918 1 2 0 78.58957511363228 17.76913585632486 -2.1730475534875993 0 0 0
11944 1 2 0 74.64582144637767 20.335778750320827 -2.201011007871088 0 0 0
8356 1 1 0 74.63832223521209 21.905810111373658 -1.6434087534354513 0 0 0
14799 1 2 0 77.20697388416491 16.93259124832968 -3.920003142474463e-08 0 0 0
14826 1 2 0 74.58901402436557 21.887814413741324 -8.247448816835967e-08 0 0 0
11916 1 2 0 81.22689374090261 17.455155817108874 -2.1688085514779076 0 0 0
11917 1 2 0 83.85248579910208 17.144363317280266 -2.2147154688354247 0 0 0
8330 1 1 0 80.00222570803858 18.483820553743115 -1.6444700093748046 0 0 0
8355 1 1 0 80.02368299979194 21.71625159269552 -1.6467159616098244 0 0 0
11920 1 2 0 80.06991699086554 20.100255579324376 -2.164960837988535 0 0 0
14800 1 2 0 80.04800716923151 18.525640369538376 -1.394276110559474e-07 0 0 0
14803 1 2 0 85.25261614732426 17.728204539643784 -4.648745005262677e-08 0 0 0
8333 1 1 0 85.32144228205688 17.664542342002562 -1.640909510332027 0 0 0
8350 1 1 0 90.39377647624971 17.634899472256084 -1.646880966858126 0 0 0
11924 1 2 0 85.77335816876162 19.164971314319974 -2.2158438026735157 0 0 0
11948 1 2 0 90.48827134897275 19.222156069704965 -2.169461287304545 0 0 0
11960 1 2 0 85.98964003522288 21.895703708120983 -2.221035979837252 0 0 0
8358 1 1 0 86.62015149594549 20.483725482897917 -1.6432025277509352 0 0 0
11961 1 2 0 88.18495893497636 20.462568808762633 -2.1760379757554222 0 0 0
8363 1 1 0 89.74034694675667 20.630569783635785 -1.6422334288821312 0 0 0
11968 1 2 0 90.37371227875761 22.08184879416842 -2.212161534685354 0 0 0
14833 1 2 0 89.83122924115769 20.684780160401118 -2.98454534552366e-08 0 0 0
11928 1 2 0 94.69874263096823 19.20835275925487 -2.189186082985244 0 0 0
8336 1 1 0 95.29577966478378 17.757668355051056 -1.644327144711705 0 0 0
11970 1 2 0 94.54262995194327 22.002099302439056 -2.2439675626353814 0 0 0
8365 1 1 0 95.23872275715327 20.66330205017315 -1.640105923712547 0 0 0
14806 1 2 0 95.31234383240168 17.772881013647876 -5.8642592463852983e-08 0 0 0
9184 1 2 0 96.81173674979016 17.393440414806804 -2.202241044992383 0 0 0
6541 1 1 0 100.83479455564802 17.413838554425602 -1.6361219285234887 0 0 0
9179 1 2 0 101.27906268886288 18.885886722595288 -2.26571763491544 0 0 0
11971 1 2 0 96.72143772858118 20.759865405376033 -2.3152274958392303 0 0 0
8369 1 1 0 98.05941776929106 21.33889538952399 -1.6254788174321817 0 0 0
9219 1 2 0 99.08626048458667 20.143832368122776 -2.0441506407655363 0 0 0
6567 1 1 0 100.6502848156736 20.239192467344466 -1.6207522321598926 0 0 0
9217 1 2 0 101.30844973917955 21.611756025510893 -2.216747105915073 0 0 0
13011 1 2 0 100.6491487493747 17.437962315683656 -1.9108311408627405e-07 0 0 0
14839 1 2 0 97.91545612713227 21.55000983947943 -3.3380078561370187e-07 0 0 0
13037 1 2 0 100.85800561044915 20.26625937101735 -3.2590788857150054e-07 0 0 0
6923 1 1 0 9.11300340163276 23.07378606835434 -1.644393239599731 0 0 0
9752 1 2 0 10.643467386727801 22.684316792559816 -2.1876014846152168 0 0 0
9779 1 2 0 8.671586765333958 24.571445763657692 -2.1939545265868823 0 0 0
6942 1 1 0 8.040905712592773 26.004730318551672 -1.6457875021127326 0 0 0
9809 1 2 0 6.457742739644097 26.16198399287934 -2.186301664588196 0 0 0
9808 1 2 0 9.105162579828937 27.1713546140218 -2.2080607933350938 0 0 0
9812 1 2 0 11.865761881982406 27.858099423451414 -2.183122191220899 0 0 0
13393 1 2 0 9.14669164294425 23.04162816651472 -2.7234330197697346e-09 0 0 0
6905 1 1 0 14.926833052345648 23.183669440256093 -1.6390068716661816 0 0 0
9751 1 2 0 13.403586042777007 22.731118845194057 -2.1947299393560487 0 0 0
9753 1 2 0 15.616758159251491 24.616517760427044 -2.197901925187976 0 0 0
6941 1 1 0 16.816237454693717 25.646360532291617 -1.6426317977863538 0 0 0
9806 1 2 0 16.65672677774151 27.19295330596792 -2.167659313761968 0 0 0
13375 1 2 0 14.826368138163838 23.287660716761344 -4.169718813837178e-08 0 0 0
13411 1 2 0 16.793603121484768 25.531580845401184 -1.3430945524291568e-07 0 0 0
6908 1 1 0 20.07472222161192 22.43067117387273 -1.6182030696389043 0 0 0
9757 1 2 0 20.41913475309783 23.99779968844758 -1.9296450712214535 0 0 0
9807 1 2 0 18.340668521132756 25.377769914031653 -2.2473881442529398 0 0 0