LAMMPS data file via write_data, version 2 Aug 2023, timestep = 1512, units = metal

15504 atoms
2 atom types

6.713916618655641 197.53722987026697 xlo xhi
5.6813770763308185 171.39974778032155 ylo yhi
-100 100 zlo zhi

Masses

1 28.085
2 15.999

Atoms # full

6810 1 1 0 7.901591585224828 6.827848752331823 -1.6467639447623625 0 0 0
9601 1 2 0 6.844564995360467 5.770794731953622 -2.30967333927824 1 0 0
6803 1 1 0 10.85812029775376 5.896389304848766 -1.6394691497104144 0 0 0
9589 1 2 0 9.316556558672609 6.165397897328358 -2.175040871110901 0 0 0
9586 1 2 0 11.576056030006624 7.315295859749916 -2.1649270234530853 0 0 0
9599 1 2 0 7.424466768241253 8.29881964953077 -2.247744706536136 0 0 0
6809 1 1 0 6.790849001649805 9.700286661466704 -1.620479117227898 1 0 0
9587 1 2 0 10.483278306890442 10.01912637416332 -2.215115200441187 0 0 0
6802 1 1 0 11.618544970226143 8.90871601065275 -1.6473540915606104 0 0 0
9597 1 2 0 7.8909996669764055 10.86246636168167 -1.9943963235782285 0 0 0
13263 1 2 0 10.963244356069298 5.8311086595739265 -6.253484888916736e-08 0 0 0
13262 1 2 0 11.522461924253362 8.921991327871496 -8.207303686793778e-09 0 0 0
6798 1 1 0 16.916798488874193 7.632917425553665 -1.6111914108390197 0 0 0
9580 1 2 0 17.51433615016558 6.145158263540274 -2.194188875779296 0 0 0
9582 1 2 0 13.062903195998715 9.424217309038765 -2.2418928170319923 0 0 0
6799 1 1 0 14.589853512781296 9.571967510878348 -1.6453397684720084 0 0 0
9578 1 2 0 15.459243070810043 8.244520564303157 -2.2111405036827425 0 0 0
9581 1 2 0 14.943535676991498 11.146570083459943 -2.090403318020137 0 0 0
9579 1 2 0 17.89277672422855 8.924803409269073 -1.9332416935767407 0 0 0
13259 1 2 0 14.642833511729963 9.498340264492176 -1.2466338044590137e-07 0 0 0
9584 1 2 0 19.9570012393243 10.254161110065427 -2.2901846226571596 0 0 0
9604 1 2 0 22.798207711505103 9.476617331255136 -2.194571449000548 0 0 0
6814 1 1 0 21.4670850458471 10.325085988388246 -1.563223321001149 0 0 0
6800 1 1 0 18.425291633714743 10.475024862005059 -1.6246741826281967 0 0 0
13260 1 2 0 18.563525111827246 10.733202325635425 -6.535339346419381e-08 0 0 0
9603 1 2 0 23.760766734646104 6.917664461160252 -2.2437188546854414 0 0 0
6812 1 1 0 24.02717483477615 8.435359870990245 -1.6363531099547428 0 0 0
9605 1 2 0 25.64645999458004 8.649996329788546 -2.0495633832451183 0 0 0
6816 1 1 0 26.934748986472304 9.649128075741556 -1.6390347138609964 0 0 0
9610 1 2 0 28.510637227524185 9.335798579232588 -2.1807781988442922 0 0 0
9611 1 2 0 26.321778902518908 11.072690210963247 -2.2632684802055887 0 0 0
13272 1 2 0 23.912516305108426 8.446484708377247 -1.8264789887784656e-07 0 0 0
13276 1 2 0 27.103621826547734 9.703554413050467 -7.263001654895258e-08 0 0 0
9613 1 2 0 29.761044150616875 7.052408059025153 -2.175742330273645 0 0 0
6817 1 1 0 29.97217985905331 8.608992857968932 -1.643252206234248 0 0 0
9612 1 2 0 31.550906085164193 9.070052610502415 -2.157658115023578 0 0 0
6819 1 1 0 33.15597505443731 9.382921898375232 -1.6422036459836202 0 0 0
9617 1 2 0 34.48153351520017 8.467676540638143 -2.1488836768728032 0 0 0
9616 1 2 0 33.67077821387677 10.861394816765213 -2.1968574218517625 0 0 0
13279 1 2 0 33.08344187064736 9.308765467562438 -1.6064302309925328e-07 0 0 0
6827 1 1 0 35.90394615814977 7.727580873845074 -1.6393263720456412 0 0 0
9629 1 2 0 35.68026755264723 6.207410410737431 -2.2598412949079263 0 0 0
9630 1 2 0 37.484909443589615 8.032354678240042 -2.1590983422866525 0 0 0
6833 1 1 0 38.99345270200459 7.460725086080351 -1.648203110995018 0 0 0
9640 1 2 0 39.34867547727363 5.916351741631871 -2.1935391681670677 0 1 0
9639 1 2 0 40.241316833011446 8.419550893328418 -2.2038339288543436 0 0 0
13287 1 2 0 35.95341115373352 7.91746628872389 -5.599557711143765e-08 0 0 0
9650 1 2 0 45.53169584172985 7.8788574819138155 -2.1836036406918162 0 0 0
6834 1 1 0 41.40487427811159 9.482412048553853 -1.6455193128526222 0 0 0
9642 1 2 0 42.956468701762205 9.082361737234342 -2.163464408411122 0 0 0
6839 1 1 0 44.56290748190628 9.165793268186764 -1.6472369289522808 0 0 0
9641 1 2 0 40.932950102331155 10.988443668437542 -2.1871028263108716 0 0 0
9649 1 2 0 45.179190185132335 10.635757324020252 -2.174880804135943 0 0 0
6842 1 1 0 46.75664293918338 6.832202277899717 -1.640843071431046 0 0 0
9655 1 2 0 48.22025248978034 7.494138936848106 -2.1214856166260843 0 0 0
6850 1 1 0 49.76081669122602 7.0812320120138725 -1.6411029584546144 0 0 0
9665 1 2 0 50.94620815686635 8.091156794533896 -2.2289350962453405 0 0 0
9664 1 2 0 51.34253608437911 10.686476726230058 -2.202504990023336 0 0 0
13310 1 2 0 49.84606096453305 7.134897565113071 -1.1109010353782119e-07 0 0 0
6848 1 1 0 51.98532896074352 9.258475719467604 -1.6486560008166222 0 0 0
9666 1 2 0 53.559220209941614 9.048645911371468 -2.2078508457920982 0 0 0
6858 1 1 0 56.55307434364569 6.151993175188184 -1.6458808030547918 0 0 0
9675 1 2 0 55.90191307248448 7.525086866101361 -2.2679169937053962 0 0 0
6854 1 1 0 55.117363017314375 8.833114031735304 -1.6368752398514164 0 0 0
9674 1 2 0 56.21087338756056 9.972825852970681 -2.127093816243759 0 0 0
13318 1 2 0 56.627503946781324 6.201428184669621 -5.152641760799651e-07 0 0 0
13314 1 2 0 54.98540905827858 8.726314290132098 -2.0303490953388043e-07 0 0 0
9677 1 2 0 59.15993020686402 10.004254886491555 -2.2033146426155965 0 0 0
6863 1 1 0 60.738361382122925 10.176772713079572 -1.6511801849307959 0 0 0
9689 1 2 0 61.693075951070085 8.906269515921283 -2.182034768660529 0 0 0
6855 1 1 0 57.685185368598695 10.565321498327627 -1.6354533135301883 0 0 0
13315 1 2 0 57.76547391948536 10.43242567042643 -1.5100533255951384e-07 0 0 0
9682 1 2 0 58.078967130266264 5.789075712185493 -2.203014285536284 0 1 0
9693 1 2 0 62.856460174166436 6.3477769257629175 -2.1814483015008723 0 0 0
6865 1 1 0 62.94367364576287 7.924758283975612 -1.6480414363222329 0 0 0
11861 1 2 0 66.95037964716556 7.5712538204698365 -2.056848537163913 0 0 0
9694 1 2 0 64.3892440436206 8.502413036581633 -2.247681476137194 0 0 0
8290 1 1 0 65.901185548253 8.770639768769389 -1.6285923514177234 0 0 0
11860 1 2 0 66.64898646111212 10.10375929919174 -2.248455834389544 0 0 0
8293 1 1 0 68.54541973012212 7.401439360396031 -1.6344485838524156 0 0 0
11866 1 2 0 68.85077629985793 5.888727455580527 -2.242487863699715 0 0 0
11865 1 2 0 69.48081029922733 8.669454474327646 -2.2310358598897584 0 0 0
8294 1 1 0 70.63454285478791 9.733007454086428 -1.6342144307219189 0 0 0
11868 1 2 0 72.07553529390951 9.231067891868344 -2.2436356058225178 0 0 0
8300 1 1 0 73.58685684367741 9.534112106804411 -1.6457761037957261 0 0 0
14753 1 2 0 68.75441171875167 7.38219957736604 -1.3506085533642957e-07 0 0 0
14754 1 2 0 70.50269561638356 9.628540464847102 -1.7305916206968915e-07 0 0 0
14760 1 2 0 73.58162007213444 9.630126511732072 -3.4294578888159724e-07 0 0 0
8299 1 1 0 74.38187401901673 6.558444643900591 -1.6422121463533395 0 0 0
11877 1 2 0 75.88862840341544 6.1133169902271485 -2.1828961303390075 0 0 0
8302 1 1 0 77.39133569504546 6.565719212403465 -1.6430617123636553 0 0 0
11880 1 2 0 77.87030925402247 8.05524871012785 -2.2158529245584377 0 0 0
11875 1 2 0 74.32500122165499 8.141261901320096 -2.166282114073606 0 0 0
8303 1 1 0 78.96757982451084 9.169854463210639 -1.6452005542564685 0 0 0
11878 1 2 0 74.23777733558433 10.96905392476812 -2.208162437789201 0 0 0
11882 1 2 0 78.71168889371728 10.711054535900859 -2.2082776309759153 0 0 0
14762 1 2 0 77.362120145914 6.640438400716094 -3.8608328274198834e-07 0 0 0
14763 1 2 0 78.93649209816087 9.199600864083989 -7.79680705413069e-08 0 0 0
14759 1 2 0 74.25322064701588 6.545717778254252 -1.1529090555912691e-07 0 0 0
11893 1 2 0 82.6478809479454 7.224003195135188 -2.221392988802986 0 0 0
8313 1 1 0 83.1578512042099 5.749531620858189 -1.6426888930586774 0 0 0
11883 1 2 0 80.43954466618352 8.685439501235658 -2.2087871495985354 0 0 0
8309 1 1 0 81.98666086509648 8.632042715609272 -1.6456657020740773 0 0 0
11892 1 2 0 82.75136557546844 9.985644656424418 -2.2427891556528285 0 0 0
14769 1 2 0 82.03692712037204 8.6394655864238 -8.782023983990036e-08 0 0 0
14773 1 2 0 83.0827153229301 5.783571171896054 -1.1847329490450354e-07 0 0 0
11903 1 2 0 86.77258650703766 7.117560390338705 -2.282957240230465 0 0 0
8315 1 1 0 87.22390307739268 8.541239995264478 -1.6254064068458154 0 0 0
11902 1 2 0 86.14691515977272 9.707795212145424 -2.0442316816939736 0 0 0
8318 1 1 0 90.05244947839077 9.404689137655604 -1.6442239831944674 0 0 0
11904 1 2 0 88.58861862046476 9.134751559518191 -2.3126639105635314 0 0 0
11907 1 2 0 90.69936574613506 10.783889656895763 -2.264821850930131 0 0 0
11908 1 2 0 90.84669476867292 8.08453343559203 -2.175193472553002 0 0 0
14775 1 2 0 87.39580577839546 8.355275357004928 -7.414813145157859e-08 0 0 0
14778 1 2 0 90.03760030068153 9.49113311967913 -1.6865103744638535e-07 0 0 0
8317 1 1 0 86.23395254691995 5.690189569337982 -1.650652467593072 0 1 0
14777 1 2 0 86.24702589070395 5.682030024198525 -6.551751628417883e-07 0 1 0
8321 1 1 0 92.27572618791184 7.524435435959881 -1.636576118183014 0 0 0
11912 1 2 0 92.41234324460768 6.059296688923498 -2.315957366264872 0 0 0
11925 1 2 0 95.53537752010169 6.277081671195102 -2.310011535914932 0 0 0
8328 1 1 0 94.4211228291389 9.617333197001864 -1.6338419114122928 0 0 0
11913 1 2 0 93.38755075146865 8.529676983115943 -2.273135712707892 0 0 0
11923 1 2 0 95.8641183422018 9.058036958958464 -2.164833739101763 0 0 0
11924 1 2 0 94.21427929578651 11.070943271608245 -2.3197059350691838 0 0 0
8329 1 1 0 96.28743041788915 7.564010121306175 -1.6229554463917224 0 0 0
14781 1 2 0 92.38828902412644 7.469059919640328 -2.6491796304514785e-07 0 0 0
14788 1 2 0 94.27837812086084 9.750008431277443 -5.322839152551723e-07 0 0 0
9063 1 2 0 97.86159158325943 7.531638812434404 -2.0221352701097395 0 0 0
9059 1 2 0 100.22021909152424 7.693913594337733 -2.147534940090942 0 0 0
6468 1 1 0 100.04270774274674 6.067978063448384 -1.6533240461450345 0 0 0
6470 1 1 0 98.97671395619363 8.704853180336741 -1.6129468090128505 0 0 0
9061 1 2 0 98.41987202877795 10.176710029513549 -2.182281379737129 0 0 0
12928 1 2 0 99.93844846849353 6.073292844075307 -2.4436803790380177e-07 0 0 0
12930 1 2 0 99.22445213538613 8.972963614475491 -5.185801185187951e-07 0 0 0
6808 1 1 0 9.463591550720594 11.211754716620153 -1.6200048508575993 0 0 0
6867 1 1 0 8.988682275276888 14.225084837989082 -1.646676689140123 0 0 0
9697 1 2 0 7.439259556642052 14.582126015082139 -2.202367380780627 0 0 0
9598 1 2 0 9.574493398774838 12.766035579171755 -2.2256165356687707 0 0 0
6869 1 1 0 11.228242844646653 16.490950790200962 -1.6389684649681215 0 0 0
9696 1 2 0 10.113799736973299 15.351041258533398 -2.135508763126478 0 0 0
6801 1 1 0 15.907655023994815 12.429695139625242 -1.6316241682710808 0 0 0
9583 1 2 0 17.436711232967046 11.772947887187575 -2.1443805334755868 0 0 0
9585 1 2 0 15.159746048684115 13.941398859818039 -2.1148231781671596 0 0 0
9698 1 2 0 12.80462102356945 15.952969501527958 -2.117721765513699 0 0 0
6868 1 1 0 14.413811654582927 15.468079053757313 -1.6464655726277615 0 0 0
13261 1 2 0 16.054875319439596 12.625767369814959 -1.4227461153230041e-09 0 0 0
9608 1 2 0 21.604297830357005 11.966741837741656 -1.654492311720809 0 0 0
6826 1 1 0 22.59145044373391 13.258299795301566 -1.5597481338727346 0 0 0
9628 1 2 0 21.736605224309507 14.544757422436208 -2.191896909708667 0 0 0
6875 1 1 0 21.516702162728787 16.117762300936192 -1.6439952726451392 0 0 0
13286 1 2 0 22.999472119786 13.67044108320406 -1.7410916204328597e-07 0 0 0
13335 1 2 0 21.392718137168142 16.100173733275124 -9.756690316861139e-08 0 0 0
6818 1 1 0 25.283846734140546 12.11258705142159 -1.4913272074710209 0 0 0
9615 1 2 0 23.97229152104606 12.705965909488647 -2.3349635800115704 0 0 0
6821 1 1 0 26.616124648690516 14.93980846326607 -1.4962263695377214 0 0 0
9614 1 2 0 26.239527136782737 13.393431418304747 -1.2617255664783398 0 0 0
9620 1 2 0 28.007384068832437 14.772038965701316 -2.3835494117804163 0 0 0
9621 1 2 0 25.396795536124536 15.766106598378485 -2.2449131760869117 0 0 0
6820 1 1 0 34.46418740029808 12.208287916174225 -1.6482795813842739 0 0 0
6822 1 1 0 29.445864687070646 14.86887844334145 -1.5733899588221492 0 0 0
9622 1 2 0 30.703074603631688 14.017835624832292 -2.2502428105107852 0 0 0
6823 1 1 0 32.22861232671543 14.25414200882509 -1.615053581014557 0 0 0
9618 1 2 0 33.46621657034052 13.386552137579695 -2.2629143705872887 0 0 0
9623 1 2 0 29.76613291097973 16.473905109958114 -1.7015995251886213 0 0 0
9624 1 2 0 32.533324193859755 15.826603827038443 -1.9551726076701694 0 0 0
13283 1 2 0 32.17648191971771 13.932110742492648 -2.0582444809410575e-07 0 0 0
9619 1 2 0 36.032393679377726 12.471466220169741 -2.1834062491343222 0 0 0
6836 1 1 0 37.36155260270982 13.357225540577822 -1.646793795930103 0 0 0
9645 1 2 0 37.20533887015634 14.924982762854937 -2.193943334869512 0 0 0
9643 1 2 0 38.830516399857096 12.776257853349653 -2.203743463125405 0 0 0
9721 1 2 0 35.079325820237536 16.57718873976822 -2.2878427827886116 0 0 0
6884 1 1 0 36.59075552202137 16.363017603586567 -1.647065178134629 0 0 0
6835 1 1 0 40.384427574746276 12.464675788995287 -1.645103888606017 0 0 0
13344 1 2 0 36.60804682845837 16.329113973720876 -2.1426192366071598e-07 0 0 0
13296 1 2 0 37.370295182881264 13.305970483335932 -5.381558386977134e-09 0 0 0
6840 1 1 0 45.38878266792155 12.206025141273871 -1.644579855091948 0 0 0
9644 1 2 0 41.47090302922557 13.620427613461674 -2.1716038560938253 0 0 0
6841 1 1 0 42.954175273450915 14.185723625502296 -1.6453847332246156 0 0 0
9651 1 2 0 44.15281160746514 13.17336516346061 -2.195532128645645 0 0 0
9653 1 2 0 43.255087122301866 15.723069854406159 -2.217146251024235 0 0 0
13300 1 2 0 45.399868616159395 12.214273634533281 -7.930770071829459e-08 0 0 0
13301 1 2 0 42.954874329502715 14.223396182567146 -1.0803638594982918e-07 0 0 0
9667 1 2 0 49.52522549080197 12.7609463850807 -2.196760400320737 0 0 0
6849 1 1 0 50.993022902265395 12.207954455695948 -1.6442485190772234 0 0 0
9652 1 2 0 46.82965892028638 12.83138190822395 -2.2058604794048886 0 0 0
6851 1 1 0 48.196282809821334 13.603485287902016 -1.6475467149835656 0 0 0
9670 1 2 0 48.27569434070784 15.171251898276116 -2.2220573475384477 0 0 0
13311 1 2 0 48.172081498302056 13.62889013767488 -1.3061343518017966e-08 0 0 0
6887 1 1 0 48.2003782753037 16.727810969594593 -1.6390168460564802 0 0 0
9668 1 2 0 52.19038904688353 13.191876781608373 -2.2277794884076054 0 0 0
6856 1 1 0 53.54283610675069 13.935745571563558 -1.6439281090527262 0 0 0
9679 1 2 0 53.60206873309539 15.473606242841202 -2.2448440472586135 0 0 0
6857 1 1 0 56.482315406414294 13.261506747863695 -1.6518227552673745 0 0 0
9678 1 2 0 54.90917108110572 13.151023529403227 -2.1749324381224238 0 0 0
13317 1 2 0 56.45226136415993 13.273661023416803 -9.548114378512244e-08 0 0 0
9676 1 2 0 57.51079496975401 12.100558263341528 -2.1980823414726776 0 0 0
9680 1 2 0 57.24016332196648 14.565464441851788 -2.322756605117819 0 0 0
9690 1 2 0 61.34557701049397 11.62490873458985 -2.2497422234035183 0 0 0
6894 1 1 0 62.07690515867458 12.976940828073722 -1.627484450722202 0 0 0
9739 1 2 0 61.503091303045444 14.450751762172581 -2.1649673469072774 0 0 0
6892 1 1 0 57.615488150737676 15.959527353080583 -1.5711280299721626 0 0 0
6895 1 1 0 62.23829509823389 15.859617187861279 -1.6445913209429557 0 0 0
13354 1 2 0 61.914049851900984 12.85322371134151 -1.4406869079304172e-07 0 0 0
13352 1 2 0 58.00755483542133 15.666520319189715 -7.407734734522868e-08 0 0 0
11862 1 2 0 66.01601095051042 12.547451693848917 -2.366773533470659 0 0 0
8291 1 1 0 67.09547458008747 11.567455032725274 -1.6532793025424382 0 0 0
9740 1 2 0 63.64166707025568 13.111329079756366 -2.114724186586906 0 0 0
8292 1 1 0 65.11337548499809 13.670540070414411 -1.6398490730537214 0 0 0
9741 1 2 0 63.678611109809495 16.38491339080347 -2.244658347353896 0 0 0
8333 1 1 0 65.20049311999145 16.54602193851435 -1.6360770859374327 0 0 0
11864 1 2 0 65.8277425552143 15.090739060402576 -2.1255796254449244 0 0 0
11863 1 2 0 68.45377328138126 12.237885264681255 -2.2843622099057166 0 0 0
11867 1 2 0 70.7759734544065 11.356326901872896 -2.0231190263546424 0 0 0
8295 1 1 0 69.88719559284095 12.69967688835165 -1.6256809477643877 0 0 0
11869 1 2 0 70.38703486677343 14.170467279776897 -2.2301776087956067 0 0 0
8334 1 1 0 71.06385354027182 15.592579932160552 -1.6461497917713965 0 0 0
11929 1 2 0 72.61702347388861 15.652152914955733 -2.20039203137082 0 0 0
14755 1 2 0 69.78291575807388 12.903049124973245 -1.292833884773828e-07 0 0 0
8305 1 1 0 75.044850285804 12.325611220980136 -1.6457308323751112 0 0 0
11884 1 2 0 76.58409572239654 12.23506001009728 -2.2269637387467984 0 0 0
8304 1 1 0 78.12371532781049 12.160579384128704 -1.6458247384230165 0 0 0
11886 1 2 0 74.4939720549895 13.79965200353817 -2.197572548802671 0 0 0
11885 1 2 0 78.94688160356087 13.491276786518394 -2.2178104006729695 0 0 0
8335 1 1 0 74.13805669496233 15.331923507385065 -1.6443264296847155 0 0 0
11931 1 2 0 75.11817456042904 16.567477370582232 -2.199430513661941 0 0 0
11898 1 2 0 79.0823658013263 16.286797718694956 -2.196005076554019 0 0 0
14795 1 2 0 74.1867686383958 15.322947336868404 -3.0106113173152407e-07 0 0 0
14765 1 2 0 74.99965175403682 12.317754578336883 -1.1260206660911257e-07 0 0 0
14772 1 2 0 79.65562946426753 14.794854267043208 -1.8199632590859956e-07 0 0 0
11894 1 2 0 82.47766570251767 12.749713186363255 -2.1395740530868523 0 0 0
8310 1 1 0 83.31653312530143 11.417449282750056 -1.6421378444562806 0 0 0
11895 1 2 0 84.79508875279733 11.824151483336687 -2.24882337621491 0 0 0
8312 1 1 0 79.70822537568405 14.859865836249517 -1.6433240179712736 0 0 0
11896 1 2 0 81.24965216677194 14.973748518819306 -2.2127286375188815 0 0 0
8311 1 1 0 82.64638990105809 14.324679460520374 -1.642971572653109 0 0 0
11897 1 2 0 83.90258481714044 15.239753722211255 -2.252632135042715 0 0 0
8341 1 1 0 84.66103741399499 16.584876640548654 -1.6251250996885491 0 0 0
8316 1 1 0 86.21733071011363 11.304611918824135 -1.631698126582455 0 0 0
11905 1 2 0 87.38090157145376 12.281870707296354 -2.275354162892254 0 0 0
8320 1 1 0 88.27133705948125 13.525504644882083 -1.6411689683959898 0 0 0
11909 1 2 0 89.81407998487 13.328844134340505 -2.1627570522482036 0 0 0
11911 1 2 0 87.87341334714083 14.979875811262636 -2.27529134694911 0 0 0
8342 1 1 0 87.67249725197205 16.488423946688705 -1.646372038451451 0 0 0
8319 1 1 0 90.9516869200569 12.287452598562133 -1.6368410633450072 0 0 0
8331 1 1 0 93.84055891935787 12.519256365215526 -1.6449468258339066 0 0 0
11910 1 2 0 92.35210514033206 12.931167085632786 -2.201143571754393 0 0 0
11926 1 2 0 94.91298016866638 13.579860804896667 -2.247201948384969 0 0 0
8332 1 1 0 96.32723318407797 14.172784828508936 -1.6419736898968886 0 0 0
11927 1 2 0 96.08500253981485 15.77374720276457 -2.1440061832754034 0 0 0
14791 1 2 0 93.91678703191381 12.5093331086533 -3.896188287796948e-07 0 0 0
14792 1 2 0 96.49306133545038 14.221367991906451 -1.5304467384692395e-07 0 0 0
6469 1 1 0 98.53342384129293 11.78421835662086 -1.6423587401772433 0 0 0
9049 1 2 0 100.05183341571382 12.057884876354825 -2.2087297807558914 0 0 0
6462 1 1 0 101.5782181236492 12.307610892676166 -1.6505924840322266 0 0 0
9062 1 2 0 97.50801230238501 13.045790468520693 -2.1611718965536806 0 0 0
9048 1 2 0 101.77663523445302 13.833840175962878 -2.289326800859271 0 0 0
6465 1 1 0 102.10937198849493 15.286807792866448 -1.5742662651624004 0 0 0
9054 1 2 0 101.42534751352994 16.64957333065436 -2.2480714597661544 0 0 0
12922 1 2 0 101.64833663694253 12.32801416764063 -4.212357473688544e-08 0 0 0
9775 1 2 0 7.77377073518981 18.487716880868565 -2.188986406104416 0 0 0
6917 1 1 0 9.250535994630784 19.031378027113746 -1.6451620283902297 0 0 0
9700 1 2 0 10.50331325574142 17.977566663739758 -2.144163698964934 0 0 0
9774 1 2 0 9.15242084636444 20.626226157299932 -2.181605893284795 0 0 0
6920 1 1 0 9.219995394596062 22.214272791627042 -1.6344166673816938 0 0 0
9699 1 2 0 15.419024409763193 16.737881168662025 -2.1418792198790264 0 0 0
6896 1 1 0 16.129952689404668 18.18987130952313 -1.6471889616126933 0 0 0
9743 1 2 0 15.169806956777593 19.484447456204826 -2.1842518762449044 0 0 0
9742 1 2 0 17.7522119728875 18.298765115410603 -2.148138109651924 0 0 0
9776 1 2 0 13.221633754170373 21.733009729245218 -2.187023090744871 0 0 0
6918 1 1 0 14.632915176014768 20.985559606735183 -1.634884443177778 0 0 0
9777 1 2 0 15.793068138499924 22.045600116938964 -2.1583891046793187 0 0 0
9709 1 2 0 20.177748269078982 16.95840868190637 -2.1956403296360474 0 0 0
9707 1 2 0 22.86423106551291 16.899390182972628 -2.2160153334088197 0 0 0
6897 1 1 0 19.378119129973886 18.342831980891116 -1.6499245056126592 0 0 0
9744 1 2 0 20.331671771648672 19.641744946679555 -2.1744185614826983 0 0 0
6922 1 1 0 20.804254164547284 21.168919751351567 -1.6309771619439617 0 0 0
9783 1 2 0 19.51706230361956 22.057834319505652 -2.1645926157899753 0 0 0
9782 1 2 0 22.116752444003453 22.10041572560772 -2.1551321294252768 0 0 0
13382 1 2 0 20.987241279692512 21.006903982527877 -2.7920487793733506e-08 0 0 0
6874 1 1 0 24.402432598109943 16.957523138685637 -1.6393895440817312 0 0 0
9708 1 2 0 24.97050425313719 18.40783452680949 -2.1707526189376645 0 0 0
6880 1 1 0 26.347976818210146 19.145249271383754 -1.6444746579067633 0 0 0
9715 1 2 0 27.62875473911011 18.281004766733 -2.263646335295998 0 0 0
6879 1 1 0 29.096065162621212 17.95943599440219 -1.572635815309652 0 0 0
9717 1 2 0 26.31978012068124 20.66637916016133 -2.2573030257571443 0 0 0
6923 1 1 0 26.055674148020664 22.176490537149224 -1.6463326067519195 0 0 0
13334 1 2 0 24.341454884463378 16.829069055603938 -3.30365085189952e-07 0 0 0
13340 1 2 0 26.34435481318155 19.19638064749669 -3.2580386562697824e-07 0 0 0
13339 1 2 0 28.946977903966516 18.395471489295392 -1.8530955684547715e-07 0 0 0
13383 1 2 0 26.04306828428995 22.16465280609228 -5.9450896851450185e-08 0 0 0
6883 1 1 0 33.63782925595611 16.98126144259126 -1.610691910168835 0 0 0
9716 1 2 0 30.24089372974226 18.859579903564388 -2.3232225982599997 0 0 0
6903 1 1 0 31.709085623603983 19.20981413607796 -1.6561471768947267 0 0 0
9722 1 2 0 32.988481289479004 18.354743226102475 -2.256232143380417 0 0 0
9753 1 2 0 31.888403007607852 20.728858947670705 -2.2382069829723483 0 0 0
6925 1 1 0 31.260213279101393 22.109142505130627 -1.6185957476865385 0 0 0
13343 1 2 0 33.891815671367006 17.181091509549276 -9.3100974525528e-10 0 0 0
9723 1 2 0 37.44668502257752 17.656713544824765 -2.2119064248683245 0 0 0
6908 1 1 0 37.90832960568208 19.1400493401378 -1.6466884715908607 0 0 0
9761 1 2 0 39.438701920154394 19.3232737598435 -2.2469726142892195 0 0 0
9762 1 2 0 36.91949505674619 20.37066407683421 -2.194228844001793 0 0 0
6927 1 1 0 36.56117523523178 21.90807327079732 -1.6478147661239702 0 0 0
13368 1 2 0 37.903105441237265 19.152790389930104 -6.112277892440684e-08 0 0 0
6907 1 1 0 43.2262346821355 17.289879908716212 -1.6469233992094017 0 0 0
6909 1 1 0 40.96929671112829 19.23454137597107 -1.6401261972934713 0 0 0
9759 1 2 0 41.79470769155556 17.921421612924124 -2.2017274336418566 0 0 0
9760 1 2 0 44.41595654190525 18.326318906416066 -2.1948742641147487 0 0 0
9763 1 2 0 41.79471714840074 20.559885641952658 -2.167584428526028 0 0 0
6955 1 1 0 41.72302248751571 22.11132356466855 -1.6452917122085209 0 0 0
6913 1 1 0 45.93181469890588 18.736656606417423 -1.6402135160989013 0 0 0
13367 1 2 0 43.30271359726329 17.251156401020893 -5.846898068235921e-07 0 0 0
13373 1 2 0 45.93081447762676 18.87144952761952 -5.168332765892782e-09 0 0 0
9728 1 2 0 46.7939302162198 17.41855185863891 -2.1484588540879104 0 0 0
9727 1 2 0 49.311159317717404 17.80973165192628 -2.220141399779621 0 0 0
6889 1 1 0 50.71776193182435 18.45661862719363 -1.6440610738514791 0 0 0
9769 1 2 0 46.53588582642735 20.193264019498514 -2.2195589156160054 0 0 0
6935 1 1 0 47.4512315653789 21.46955772049238 -1.6415383481724068 0 0 0
9801 1 2 0 49.01027677180989 21.413599072255664 -2.1694901082516296 0 0 0
6934 1 1 0 50.56930497595159 21.4382649460334 -1.6397081858005627 0 0 0
9731 1 2 0 51.12476115358392 19.971507590657996 -2.1949127515855986 0 0 0
13394 1 2 0 50.652767256695846 21.535049642414904 -5.074299077116662e-08 0 0 0
6888 1 1 0 53.276485755742414 16.976335640791202 -1.6521941697677613 0 0 0
9729 1 2 0 51.80149297699627 17.378784567732183 -2.229162973268685 0 0 0
9730 1 2 0 54.22557442376394 18.20754972784887 -2.2504696741775354 0 0 0
9736 1 2 0 56.27225141619379 16.866399409865238 -1.7355429839742738 0 0 0
6916 1 1 0 55.71883429435263 18.392865630661728 -1.5758624590211239 0 0 0
9773 1 2 0 56.69467664137895 19.51944769708682 -2.2783642372704356 0 0 0
9808 1 2 0 56.15398579266632 22.079586902337613 -2.2699852958720372 0 0 0
6938 1 1 0 57.185999793518185 20.977161710539363 -1.6451872777699872 0 0 0
13376 1 2 0 55.5615819630173 18.81984633125402 -7.58325114487461e-08 0 0 0
13398 1 2 0 57.17351186633795 20.959003306452303 -1.452698529512379e-07 0 0 0
13348 1 2 0 53.32026133440507 16.925651466528198 -3.52564574749191e-09 0 0 0
9735 1 2 0 58.815095404279774 16.77932533155146 -2.324798933447645 0 0 0
9737 1 2 0 61.34232785505199 17.079480443398612 -2.2246251980941083 0 0 0
6893 1 1 0 59.97454880928908 17.728847220137133 -1.64719847591784 0 0 0
9738 1 2 0 60.030671244623306 19.235611256936362 -2.278372764209282 0 0 0
9807 1 2 0 58.693496333403964 21.42862064393485 -2.140006317908599 0 0 0
6939 1 1 0 60.11271173061631 20.74766382491911 -1.6387469012561326 0 0 0
9809 1 2 0 61.37570522350781 21.59427906051374 -2.264098499839042 0 0 0
11928 1 2 0 65.9780905153439 17.8566578936058 -2.2635871011457565 0 0 0
8349 1 1 0 66.89762038641788 19.102874900395623 -1.64768381141922 0 0 0
9904 1 2 0 64.02361857875111 21.85430025745664 -2.1914107642252616 0 0 0
8372 1 1 0 65.58374332961564 21.90780704605573 -1.6428097427595538 0 0 0
11952 1 2 0 66.34842275427538 20.556697876683852 -2.2313132094642976 0 0 0
11950 1 2 0 68.43154185907227 18.857197551138373 -2.198740516373513 0 0 0
14809 1 2 0 66.8702476839862 19.12217180336367 -4.895737648173109e-07 0 0 0
14832 1 2 0 65.63238002198713 21.875889889990184 -2.2876942426100343e-08 0 0 0
11930 1 2 0 70.36204657765009 17.00152274910485 -2.2044274724385393 0 0 0
8348 1 1 0 69.95215759425261 18.5197620780605 -1.6440920347426802 0 0 0
11951 1 2 0 70.91666030275957 19.757101866893645 -2.201858876667285 0 0 0
8363 1 1 0 71.57752758380713 21.183328025447413 -1.6453556921391856 0 0 0
11972 1 2 0 73.14455991324976 21.2603196467281 -2.1879293346263586 0 0 0
8354 1 1 0 75.80767517384594 17.988812072438947 -1.6455317493247603 0 0 0
11959 1 2 0 75.00034831408249 19.332870235506693 -2.1978614422910763 0 0 0
11957 1 2 0 77.35385735202722 18.1935016822544 -2.203941719637497 0 0 0
8353 1 1 0 78.87384719407412 17.837489069380393 -1.6440689658728838 0 0 0
8364 1 1 0 74.66440591085336 20.863086549185468 -1.6446253165643514 0 0 0
11974 1 2 0 75.77913415866261 21.967829679758708 -2.202604056646208 0 0 0
14814 1 2 0 75.79219241760916 17.94459167859713 -1.13024859142736e-07 0 0 0
11958 1 2 0 79.98917732793304 18.956985950596927 -2.1936901962089372 0 0 0
11941 1 2 0 83.78678435239298 17.92932195292095 -2.008194657864188 0 0 0
8355 1 1 0 83.95973082470638 19.53252809816316 -1.6210527478751813 0 0 0
11962 1 2 0 80.28734711886827 21.66749567962548 -2.190413073004158 0 0 0
8356 1 1 0 80.94133581411641 20.231152164060017 -1.6491044313604306 0 0 0
11960 1 2 0 82.52157632441768 20.16651699371416 -2.210199492840908 0 0 0
11940 1 2 0 86.1743152638934 16.895341572938126 -2.2264820543473296 0 0 0
11942 1 2 0 88.89206248496866 17.474270060326067 -2.1807471695703433 0 0 0
8357 1 1 0 89.52801114424554 18.92180860669459 -1.6425669111125625 0 0 0
11961 1 2 0 85.43510367853585 20.087979669488284 -2.2043699538097674 0 0 0
8365 1 1 0 86.88982145721648 20.741610906187173 -1.6472525967569784 0 0 0
11964 1 2 0 88.3440818114259 20.035119058536367 -2.1474283924363364 0 0 0
8346 1 1 0 95.40061986184823 17.24277435442209 -1.6442710428586802 0 0 0
11963 1 2 0 91.1503623774751 18.98883241167247 -2.169711667420201 0 0 0
8358 1 1 0 92.78298391738753 19.052425427619262 -1.6466041833731004 0 0 0
11948 1 2 0 93.87305593561044 17.831641188876667 -2.1409206151474387 0 0 0
11965 1 2 0 93.42887712038831 20.505875850723044 -2.1739691052137373 0 0 0
8370 1 1 0 94.1961494829691 21.887076147807406 -1.6459411106952355 0 0 0
11982 1 2 0 95.75260730724032 22.03165097067185 -2.2185332084726888 0 0 0
14806 1 2 0 95.30902522319049 17.175564364777124 -3.754105253375171e-08 0 0 0
14818 1 2 0 92.72273832096292 18.998256976627538 -8.56843295662574e-08 0 0 0
11947 1 2 0 96.51536952794997 18.341924062779924 -2.208959709428951 0 0 0
8347 1 1 0 97.92182834386165 18.99916716359855 -1.6385022743910191 0 0 0
9175 1 2 0 99.26571185281105 18.235620237398855 -2.2392887931668177 0 0 0
6537 1 1 0 100.80835439385906 18.08337097811107 -1.647665151301823 0 0 0
9173 1 2 0 101.64343031371476 19.436431092311025 -2.141555021843824 0 0 0
8371 1 1 0 97.31085871963208 21.999630814496328 -1.6371349539005258 0 0 0
11949 1 2 0 97.99366865677435 20.57585328899513 -2.1225709161410156 0 0 0
14831 1 2 0 97.25433596033074 22.136767670324478 -7.103715923723237e-08 0 0 0
9780 1 2 0 8.243443445848964 23.48950599781961 -2.1686215573762624 0 0 0
9778 1 2 0 10.713117530135426 22.605155147020113 -2.1815763165881537 0 0 0
6919 1 1 0 12.212981477001955 22.964979941685954 -1.6409618565913997 0 0 0
6983 1 1 0 7.165830133928952 24.688142449947442 -1.6483417810207563 0 0 0
9874 1 2 0 7.2186939837478015 26.298580129902632 -2.156145686659357 0 0 0
6979 1 1 0 12.205132555824752 26.088853873589535 -1.6405915534113786 0 0 0
9870 1 2 0 10.937492528255566 27.01831129967127 -2.205171635404353 0 0 0
13439 1 2 0 12.074977104159426 26.0195073003941 -9.958095992736948e-08 0 0 0
9779 1 2 0 12.355121562209515 24.530092151487374 -2.2090244193479256 0 0 0
6944 1 1 0 16.195560405916105 23.552904373111765 -1.6419418577197138 0 0 0
9814 1 2 0 17.664514713100424 23.89778322373526 -2.287196955758103 0 0 0
9869 1 2 0 13.60140250581932 26.85361526284811 -2.132387935557995 0 0 0