LAMMPS data file via write_data, version 2 Aug 2023, timestep = 1103, units = metal

15456 atoms
2 atom types

6.506888314307222 197.54875972842396 xlo xhi
5.666349630576312 170.99799097186724 ylo yhi
-100 100 zlo zhi

Masses

1 28.085
2 15.999

Atoms # full

6787 1 1 0 8.220687208036626 6.4418798831343755 -1.6476083895484783 0 0 0
9566 1 2 0 8.004745193906812 7.971484665561346 -2.2047559727902595 0 0 0
9562 1 2 0 9.591453498148761 5.73810807487851 -2.242393511441922 0 0 0
6785 1 1 0 11.12723877788911 5.689813395001558 -1.6345066673957085 0 0 0
9561 1 2 0 11.694079687994881 7.183062716773226 -2.064072693621012 0 0 0
6790 1 1 0 7.152183982790236 9.274879308668446 -1.6492006754471769 0 0 0
9570 1 2 0 8.0532445082293 10.575909720217384 -2.195200151425413 0 0 0
13230 1 2 0 7.081156890801481 9.348544120082098 -2.4466330982584517e-07 0 0 0
9565 1 2 0 14.252636728760082 7.134620220361628 -2.2358731480470264 0 0 0
6792 1 1 0 15.740135151982724 6.751149761717095 -1.6438186737997171 0 0 0
9576 1 2 0 16.644752599162583 7.977537086822806 -2.2250949762309533 0 0 0
6786 1 1 0 13.019905029329705 8.045941193590318 -1.627680190948891 0 0 0
9564 1 2 0 12.902130101718793 9.577943489370446 -2.2399727266175367 0 0 0
6788 1 1 0 12.357803771095137 11.033162273586987 -1.6483703547573965 0 0 0
13226 1 2 0 13.200163812132875 8.200863428277923 -5.7341307546572235e-08 0 0 0
13228 1 2 0 12.346107079432308 11.061336023964733 -1.7692327282573895e-07 0 0 0
9583 1 2 0 19.172057299989365 7.750295212152381 -2.2436876424391534 0 0 0
6797 1 1 0 20.630598994135102 7.266035287596818 -1.625133902729481 0 0 0
9585 1 2 0 21.22024067660615 5.823392650747934 -2.220766012208118 0 0 0
9586 1 2 0 17.81416207642394 10.273027608767027 -2.2262105054211885 0 0 0
6798 1 1 0 17.974389615267018 8.729463123417078 -1.6462452892772572 0 0 0
6799 1 1 0 22.12404312537445 10.043853627054153 -1.6273645435876691 0 0 0
9584 1 2 0 21.56884606591519 8.54855295268038 -2.042440167565033 0 0 0
9602 1 2 0 24.760007369915208 7.224908537384169 -2.2041998256726947 0 0 0
9588 1 2 0 23.672501258873766 9.88425398948954 -2.199323863590726 0 0 0
6808 1 1 0 24.8014367578878 8.791637028984459 -1.6483362611672847 0 0 0
9603 1 2 0 26.1897711303501 9.421904254085327 -2.2426195890795584 0 0 0
6814 1 1 0 27.35989938572215 10.394493267301515 -1.6448336559559877 0 0 0
9610 1 2 0 28.7393888733069 9.725549349761343 -2.258369795397474 0 0 0
13254 1 2 0 27.37718165033958 10.409994456122664 -3.533513776816318e-08 0 0 0
6809 1 1 0 25.048083977724076 5.681257531059325 -1.645084086638204 0 0 0
9612 1 2 0 30.091373326782012 7.3220395673859615 -2.266357127651261 0 0 0
6818 1 1 0 30.640631640551202 5.892670278779665 -1.6469006629413938 0 0 0
6813 1 1 0 29.963685225549877 8.825707076448188 -1.6308677921480383 0 0 0
9611 1 2 0 31.398654205945526 9.47708537960703 -2.070952294534902 0 0 0
6815 1 1 0 31.995239021580783 10.932531830839787 -1.6263504439580547 0 0 0
9615 1 2 0 33.51376205106863 10.885726086773193 -2.2684408387857036 0 0 0
13258 1 2 0 30.718169070282425 5.899066164191692 -1.0742911022023337e-07 0 0 0
13253 1 2 0 29.77022552126379 8.745992871160306 -1.214145949570439e-07 0 0 0
13255 1 2 0 32.12132266083344 11.155696294919684 -2.3382397454301025e-07 0 0 0
9626 1 2 0 34.6394421972127 6.8026997459922045 -2.098953980879915 0 0 0
6822 1 1 0 36.01264671517503 7.620973697576428 -1.6402782847916582 0 0 0
9627 1 2 0 37.39170631133876 6.8181868178732055 -2.1822080813574916 0 0 0
6825 1 1 0 38.974819623482865 6.573814213004528 -1.642274620604176 0 0 0
9630 1 2 0 39.70762365403949 7.955136174992929 -2.1741929906499067 0 0 0
9625 1 2 0 35.76442060846503 9.186374514462502 -2.2089065361453795 0 0 0
6823 1 1 0 35.02427921971583 10.57286361259368 -1.6421413068261266 0 0 0
13263 1 2 0 34.94531864223937 10.449420684807365 -1.7453802555551553e-07 0 0 0
6836 1 1 0 43.727496781788005 7.662321699308227 -1.6291534253543398 0 0 0
9649 1 2 0 44.22681138910562 6.19681751176981 -2.2384114824500516 0 0 0
6827 1 1 0 40.90694180737761 8.947040388525464 -1.6455246077305932 0 0 0
9635 1 2 0 42.313775811210725 8.27703612640099 -2.239102299363375 0 0 0
9632 1 2 0 40.530746835950346 10.471690782577491 -2.2064094738746562 0 0 0
9646 1 2 0 44.91669953987768 8.704006239788797 -2.070386583973368 0 0 0
6834 1 1 0 45.45333095669215 10.186794632594035 -1.6329582260058617 0 0 0
13267 1 2 0 40.98510484679616 8.994278201128816 -1.6514184016538738e-07 0 0 0
9657 1 2 0 49.15561020190462 6.137884559317814 -2.2118750036764756 0 0 0
6841 1 1 0 49.93092988976985 7.472874456164827 -1.6450751261433685 0 0 0
9647 1 2 0 46.95643523524419 10.299134266884415 -2.2746974705592944 0 0 0
6837 1 1 0 48.469982549088975 10.176638507249441 -1.6452015460467915 0 0 0
9651 1 2 0 49.18268256242602 8.817280978810544 -2.2337393257863845 0 0 0
13281 1 2 0 49.94010033019704 7.479715106631169 -3.1286490611836626e-07 0 0 0
9658 1 2 0 51.46565960011547 7.464501622449006 -2.237749702085914 0 0 0
6846 1 1 0 52.9992744092857 7.53006652445042 -1.644719894994826 0 0 0
9666 1 2 0 53.79846234152719 6.20653372992043 -2.2124186708504343 0 0 0
9663 1 2 0 53.719167658154596 8.898820230476314 -2.2177876993288894 0 0 0
6844 1 1 0 54.37276827168663 10.301837035170742 -1.6460250378409915 0 0 0
9664 1 2 0 55.91436100859585 10.417262159524808 -2.2251674902377316 0 0 0
13284 1 2 0 54.381505305650286 10.307211657254008 -1.4084582522121932e-07 0 0 0
9700 1 2 0 58.32455812371049 6.321467074068955 -2.217628285867088 0 0 0
6870 1 1 0 59.03063171904709 7.701855510429359 -1.6456856556959956 0 0 0
9702 1 2 0 60.57251214387857 7.802387288293556 -2.2253449675044483 0 0 0
8261 1 1 0 62.11711663220587 7.826610237296683 -1.645478470544507 0 0 0
9692 1 2 0 58.19159276291206 9.003302848273254 -2.2159548811975376 0 0 0
6864 1 1 0 57.458419992820374 10.366729001309032 -1.64504597677957 0 0 0
11813 1 2 0 62.87924570636162 6.481313531077126 -2.220164913537187 0 0 0
11824 1 2 0 67.51553631651035 6.674020779464272 -2.2147660770798883 0 0 0
8268 1 1 0 68.25180628682634 8.036826207880695 -1.6451450050630005 0 0 0
11812 1 2 0 62.88956254292914 9.1732036212314 -2.212082494892921 0 0 0
11823 1 2 0 67.45681204273123 9.359938001995443 -2.2214394500696923 0 0 0
8262 1 1 0 63.60075705415272 10.553162654570727 -1.645571279858883 0 0 0
11815 1 2 0 65.14229776227097 10.65824308150701 -2.2252736377095803 0 0 0
8269 1 1 0 66.68681087544813 10.69860185793158 -1.6455161950767927 0 0 0
11825 1 2 0 69.79269721426394 8.092533421332336 -2.2277464843030943 0 0 0
11829 1 2 0 72.159382492034 6.874354941394711 -2.222131661177508 0 0 0
8271 1 1 0 71.33286421922256 8.179763501770296 -1.6461599972567889 0 0 0
11828 1 2 0 72.05282036653581 9.549820234400432 -2.223929669273642 0 0 0
8272 1 1 0 72.70914141652612 10.949909286423447 -1.6443894723569161 0 0 0
14711 1 2 0 71.32346166323738 8.183611753470602 -4.4446111067819027e-07 0 0 0
11844 1 2 0 76.54274942952273 6.92218478194961 -2.2330528119116524 0 0 0
11843 1 2 0 76.25128352250917 9.597660533602259 -2.2009877547869428 0 0 0
8280 1 1 0 77.13858845525887 8.336761368146801 -1.6458382050405351 0 0 0
11845 1 2 0 78.62750785368239 8.595226999441362 -2.2851997934944044 0 0 0
8281 1 1 0 75.74980916082045 11.058392676160938 -1.6438623424178984 0 0 0
14720 1 2 0 77.15668299356597 8.289826115473392 -6.420986343768588e-07 0 0 0
14721 1 2 0 75.76092281422112 11.109718620365705 -5.376326861995588e-08 0 0 0
11849 1 2 0 80.56103419836533 6.904918499039579 -1.9997807521661137 0 0 0
8287 1 1 0 81.8713143851907 5.994887480126638 -1.6164067341429798 0 0 0
11856 1 2 0 83.15582088725506 6.858273825995063 -2.1973529443583213 0 0 0
8291 1 1 0 84.71758353002146 7.003299178898219 -1.6411950961143207 0 0 0
8283 1 1 0 80.11485554911685 8.437219799750684 -1.6248312183077784 0 0 0
11848 1 2 0 81.09903816461188 9.573556586896919 -2.2805539291365045 0 0 0
8290 1 1 0 85.02241629406485 10.157631683141329 -1.64154366041651 0 0 0
8284 1 1 0 81.98094661389095 10.811813498952901 -1.6442867235367982 0 0 0
11851 1 2 0 83.52276806442731 10.614892602053878 -2.1694772482402707 0 0 0
14723 1 2 0 80.06498772984276 8.669810893939912 -1.5662420199764144e-07 0 0 0
14724 1 2 0 81.95109239833197 10.83504748356598 -3.909049089759178e-08 0 0 0
14727 1 2 0 82.10835320777662 5.7965336738783 -3.7053850246667304e-09 0 0 0
11866 1 2 0 88.72222688102477 6.837619914547326 -2.219431379251249 0 0 0
8294 1 1 0 89.71063360053773 8.016326621617887 -1.5563483400188591 0 0 0
11860 1 2 0 85.25751887466554 8.542863043335682 -2.1533936101029196 0 0 0
11867 1 2 0 89.9227130817237 9.519629130428031 -2.2409117045101308 0 0 0
11868 1 2 0 91.14918690734277 7.26675051625096 -1.6904231445656688 0 0 0
8300 1 1 0 92.75685841642685 7.194386343499301 -1.575955904163721 0 0 0
11877 1 2 0 93.12379950425746 5.851956427325302 -2.3949103183392757 0 0 0
8303 1 1 0 93.81280939380092 9.85416259647655 -1.6480440123153988 0 0 0
11878 1 2 0 93.60082308732251 8.37009063128091 -2.312599178750204 0 0 0
11882 1 2 0 95.27833534420147 10.237908500169414 -2.261862611405507 0 0 0
8296 1 1 0 90.92295820325715 10.735118916676987 -1.651372953455728 0 0 0
11872 1 2 0 92.50001452783596 10.712724320695607 -2.165087034284473 0 0 0
14740 1 2 0 93.21288867259054 7.158335270508573 -5.26881782027542e-07 0 0 0
14736 1 2 0 90.87954336388661 10.66523844192369 -3.733471787180817e-08 0 0 0
6445 1 1 0 100.66393977994612 7.062116929625244 -1.6487245843963867 0 0 0
9027 1 2 0 99.80508850524933 5.781970324888135 -2.241187860801594 0 0 0
6446 1 1 0 99.50909070646925 9.882635446825772 -1.6434200626361468 0 0 0
9028 1 2 0 98.00041139346084 10.210515408067952 -2.2354159080202103 0 0 0
9026 1 2 0 99.92262711107213 8.408830307747504 -2.2371404032791835 0 0 0
8305 1 1 0 96.63839451075867 10.921327434834899 -1.6464159588008913 0 0 0
9024 1 2 0 100.63511008797921 10.971638670396324 -2.16626942055086 0 0 0
6789 1 1 0 9.266227476540974 11.585941532115536 -1.643210644251616 0 0 0
9568 1 2 0 10.80047863060226 11.241537295234762 -2.2013134231974023 0 0 0
6871 1 1 0 8.534612310432331 14.631841710390667 -1.6444233525009353 0 0 0
9704 1 2 0 6.976053228027526 14.901120848285 -2.2206352248442682 0 0 0
9571 1 2 0 8.927895357496583 13.114420657341244 -2.1702544094280407 0 0 0
9703 1 2 0 9.707167031020719 15.69702957910263 -2.1884244717766848 0 0 0
13311 1 2 0 8.518791014433207 14.728813018254886 -2.449819655001211e-07 0 0 0
9569 1 2 0 13.41372781847018 12.207027465895447 -2.181021185525079 0 0 0
6800 1 1 0 17.532353065287 11.804778386226419 -1.639985663514735 0 0 0
9590 1 2 0 16.13819729512012 12.534135943441319 -2.2081318686397475 0 0 0
6847 1 1 0 14.679034047755634 13.15394760296489 -1.646421087676562 0 0 0
9667 1 2 0 14.41888209346819 14.718384815576952 -2.1729585167472525 0 0 0
9705 1 2 0 12.414891288311937 16.600375142677564 -2.1629045479172797 0 0 0
6872 1 1 0 13.99816367616428 16.25299899482059 -1.6466128518635523 0 0 0
13240 1 2 0 17.404131144050233 11.749442999805964 -5.266704935421888e-08 0 0 0
13287 1 2 0 14.723041613203723 13.160818301825572 -3.6252989153042264e-08 0 0 0
9589 1 2 0 18.87704035397021 12.654847190140458 -2.1166377281591586 0 0 0
6801 1 1 0 20.46966401362317 12.690459459016203 -1.6436560567756593 0 0 0
9587 1 2 0 21.313556433355732 11.36426719623218 -2.2464696444126937 0 0 0
9591 1 2 0 21.061016363955975 14.133233577720082 -2.212033547039415 0 0 0
6848 1 1 0 21.646556546592787 15.591388887469773 -1.6486157227150477 0 0 0
9668 1 2 0 23.263702899697396 15.585426623436938 -2.1621583178529122 0 0 0
13241 1 2 0 20.58400131902632 12.673371024618623 -4.428170007049509e-08 0 0 0
13288 1 2 0 21.661571553487963 15.634895454730389 -5.529000993661882e-07 0 0 0
9613 1 2 0 27.097448779083273 11.92428500803589 -2.191002290426752 0 0 0
9617 1 2 0 25.943658799087203 14.33371951517355 -2.183970096926875 0 0 0
6816 1 1 0 27.27842521642898 13.476884887611185 -1.6446821820571074 0 0 0
9616 1 2 0 28.817186980588502 13.901880478831059 -2.190907981845067 0 0 0
6849 1 1 0 24.869857560051774 15.524146553778376 -1.64194751782898 0 0 0
9614 1 2 0 30.882298445407127 12.024047977318526 -2.185842976951428 0 0 0
6817 1 1 0 30.341810906989974 13.498410223110556 -1.6424203213841289 0 0 0
9618 1 2 0 31.51518086378815 14.507970927488522 -2.2108945812478753 0 0 0
9637 1 2 0 34.32898177177174 14.256889357139741 -2.2160639805900617 0 0 0
6855 1 1 0 32.974886967489304 15.048077858897956 -1.6469471748416988 0 0 0
9679 1 2 0 32.945616535188286 16.5831966929382 -2.2306665919408855 0 0 0
13257 1 2 0 30.287168941458987 13.555006362146923 -1.33610654177462e-07 0 0 0
13295 1 2 0 33.01137612128703 15.00136050238391 -4.922746937605444e-08 0 0 0
9628 1 2 0 35.86373943100204 11.932219913135938 -2.0998226046996815 0 0 0
6828 1 1 0 35.71885453863042 13.523579509298445 -1.6397529559148765 0 0 0
9636 1 2 0 37.08930338706031 14.276283549331568 -2.203382029122031 0 0 0
6829 1 1 0 38.64673182752218 14.46714431772535 -1.6484685680526079 0 0 0
9633 1 2 0 39.541795235991 13.161014649423263 -2.2033536760750976 0 0 0
9638 1 2 0 39.18512230978839 15.963359536195622 -2.178804937399323 0 0 0
6826 1 1 0 40.63988608123058 12.04062766410594 -1.6377506581612313 0 0 0
9634 1 2 0 42.10495046356564 12.586655289339811 -2.1541869249374077 0 0 0
9645 1 2 0 44.49198380012363 11.360524014837003 -2.268520397413411 0 0 0
6835 1 1 0 43.66055653278311 12.638066493918963 -1.642792891776225 0 0 0
9648 1 2 0 44.316474080954116 14.006785514741077 -2.257986173681701 0 0 0
9655 1 2 0 43.79156259083138 16.586125507500224 -2.2017427209191345 0 0 0
6839 1 1 0 44.84206328919824 15.439023993451729 -1.645897648617599 0 0 0
13275 1 2 0 43.73096814590248 12.632461934981684 -3.299450332548081e-07 0 0 0
9650 1 2 0 49.28125795399921 11.489449220596448 -2.20031055722038 0 0 0
9652 1 2 0 48.6976378365266 14.108696634250531 -2.2187634692920413 0 0 0
6838 1 1 0 49.74412858772203 12.96407612721547 -1.6439736999520793 0 0 0
9653 1 2 0 51.274050190072046 13.174233167321399 -2.2272709806318765 0 0 0
9654 1 2 0 46.39133188128324 15.614690723395775 -2.2060448777746915 0 0 0
6840 1 1 0 47.94237757866341 15.467385936078712 -1.6460554984739497 0 0 0
13278 1 2 0 49.74422707105841 13.017269874144008 -1.9779793984978112e-07 0 0 0
13280 1 2 0 47.9268011437447 15.451344189208337 -2.076842412128259e-07 0 0 0
9662 1 2 0 53.48143077281725 11.57076859539074 -2.2187180900525525 0 0 0
6845 1 1 0 52.80502423625462 12.965587214613784 -1.644902374432323 0 0 0
9665 1 2 0 53.69393935605804 14.231714748215232 -2.2057633288453355 0 0 0
6865 1 1 0 54.279687642143635 15.66329844987339 -1.6445629690698917 0 0 0
9693 1 2 0 55.81435894457612 15.826667224336276 -2.2274985612576934 0 0 0
13305 1 2 0 54.28330872075607 15.693937026014495 -2.6586562887524206e-07 0 0 0
9691 1 2 0 58.27422502578982 11.683182110234391 -2.213707656693098 0 0 0
9695 1 2 0 58.053445364036804 14.342708019451944 -2.223636793516454 0 0 0
6867 1 1 0 58.94205103745107 13.080558169914502 -1.645399018421643 0 0 0
9697 1 2 0 60.48089075970503 13.217387048637775 -2.2257532877978408 0 0 0
8263 1 1 0 62.02589160725983 13.20802269257703 -1.645353013822203 0 0 0
6866 1 1 0 57.35445491472895 15.718753954081597 -1.6453526581878402 0 0 0
13306 1 2 0 57.33817143479129 15.710883426517372 -3.4095796419934034e-07 0 0 0
11814 1 2 0 62.76899807812217 11.854360631215679 -2.222494713073065 0 0 0
11826 1 2 0 67.46794723675956 12.039972039704503 -2.2139772110487406 0 0 0
11816 1 2 0 62.83450498250732 14.532167337673528 -2.211190353454992 0 0 0
11833 1 2 0 67.26838037330516 14.704863034289037 -2.226564244777345 0 0 0
8273 1 1 0 68.14130126722692 13.438219324922454 -1.6454920112490559 0 0 0
8313 1 1 0 63.50678173690822 15.930426975124764 -1.645367730354123 0 0 0
11895 1 2 0 65.04235340636937 16.106795393989348 -2.221811385028517 0 0 0
8314 1 1 0 66.58777260467323 16.084336267739168 -1.6450683423150019 0 0 0
14713 1 2 0 68.15172279528264 13.417596436949388 -5.264915885283427e-08 0 0 0
14753 1 2 0 63.51432049554264 15.927981396967795 -3.2473952713394334e-07 0 0 0
14754 1 2 0 66.59058057411592 16.095244204470493 -9.046182601092925e-07 0 0 0
11830 1 2 0 71.8461650093241 12.227178461857722 -2.2090018989388853 0 0 0
11832 1 2 0 69.6682690814805 13.648516907788856 -2.22868858628752 0 0 0
8274 1 1 0 71.20936974516528 13.632800054892025 -1.6444662644286236 0 0 0
11834 1 2 0 72.07220750781006 14.922343913399024 -2.2197598823292255 0 0 0
8315 1 1 0 72.8660579740824 16.259489203432878 -1.6460079966402683 0 0 0
14714 1 2 0 71.21147063435508 13.670695767845153 -2.509708147111314e-07 0 0 0
11831 1 2 0 74.2233143550441 11.190104037207446 -2.2389674891351916 0 0 0
11846 1 2 0 76.69144448173812 12.282483388830785 -2.2273232817345927 0 0 0
8285 1 1 0 77.49126500354306 13.609756548599496 -1.6461980112663137 0 0 0
11853 1 2 0 76.7412624430947 14.96213906197414 -2.2215595827985872 0 0 0
11852 1 2 0 79.04384952221251 13.590742767550346 -2.21089151325186 0 0 0
11898 1 2 0 74.42416779094464 16.290402041099686 -2.202872653767702 0 0 0
8316 1 1 0 75.98333041834489 16.311141075668846 -1.645603849940167 0 0 0
11850 1 2 0 81.35338120566553 12.213586569347296 -2.2351652831621074 0 0 0
8286 1 1 0 80.59753305233195 13.554560509386247 -1.6457175687004897 0 0 0
11854 1 2 0 81.44671596008287 14.84096395657832 -2.2261053226483445 0 0 0
8319 1 1 0 82.25794265085388 16.154881952535806 -1.643844206435211 0 0 0
11903 1 2 0 83.80925464373048 16.200459397182712 -2.2156953703295565 0 0 0
11861 1 2 0 85.97074092438568 11.469809277493214 -2.1714060082567648 0 0 0
11871 1 2 0 90.40445580005603 12.17061135077593 -2.238849906018322 0 0 0
11874 1 2 0 85.73479504701366 14.387997612993153 -2.146620953640759 0 0 0
8297 1 1 0 86.51167650294451 12.984151163544372 -1.645071982980643 0 0 0
11873 1 2 0 88.04657183410941 13.24774579585582 -2.212415148277629 0 0 0
8298 1 1 0 89.57876534458151 13.464021377097982 -1.6449656979788991 0 0 0
11875 1 2 0 90.31939220344894 14.838839651527795 -2.207455804786435 0 0 0
8320 1 1 0 85.3478812231241 15.939786165664499 -1.646240707150025 0 0 0
14738 1 2 0 89.58085415525636 13.480914475456762 -2.3372461333853811e-07 0 0 0
11885 1 2 0 95.1051816462854 14.668745064643524 -2.2186181841948858 0 0 0
8322 1 1 0 91.28364012273663 16.070473468011595 -1.6464597579649125 0 0 0
8323 1 1 0 94.36372899687883 16.02729552781325 -1.6445834317160675 0 0 0
11907 1 2 0 92.82729085601842 15.952007103714902 -2.234510446680204 0 0 0
14746 1 2 0 96.3979268035933 13.905906428129539 -3.515468202522695e-07 0 0 0
8306 1 1 0 96.45354482103187 13.933675715489708 -1.6421016651654838 0 0 0
11884 1 2 0 96.54335622739826 12.432534906398457 -2.262532945163171 0 0 0
6444 1 1 0 101.27160716454206 12.406925620475308 -1.647413163874609 0 0 0
6518 1 1 0 99.32906274405912 14.745281810464403 -1.629158451689029 0 0 0
9150 1 2 0 97.79039274915168 14.698477604954194 -2.210208226743813 0 0 0
9025 1 2 0 100.33094853040812 13.614013378836347 -2.273346918401595 0 0 0
9149 1 2 0 99.85451569793298 16.228065003665847 -2.0884129629115322 0 0 0
6873 1 1 0 10.82181656239068 16.838579515617614 -1.6494634303392097 0 0 0
9744 1 2 0 7.657810380956416 19.246085234408536 -2.1586981841889954 0 0 0
9707 1 2 0 10.243487521006514 18.314496149061597 -2.2028097715180284 0 0 0
6896 1 1 0 9.222905522152525 19.505068690757508 -1.6436842269927392 0 0 0
9743 1 2 0 9.539206246510716 21.02423138519948 -2.2232603269649607 0 0 0
13336 1 2 0 9.331570571491827 19.499092657236744 -2.797126167978745e-07 0 0 0
9706 1 2 0 15.217663852707792 17.30635482899653 -2.155658433478729 0 0 0
9717 1 2 0 15.647606107861256 19.938970944769697 -2.170809620504145 0 0 0
6879 1 1 0 16.333585718052923 18.48258047260107 -1.6485619971773398 0 0 0
6897 1 1 0 15.156592446565872 21.46458890028674 -1.6490165323218489 0 0 0
13319 1 2 0 16.379848361811167 18.453950830142798 -1.8611023212900795e-07 0 0 0
9669 1 2 0 20.59347817744771 16.8368192372415 -2.1422380053493124 0 0 0
9716 1 2 0 17.970585011088644 18.230597667483664 -2.1394210542637535 0 0 0
6880 1 1 0 19.62382450533666 18.159762490107898 -1.6457100762578747 0 0 0
9718 1 2 0 20.454571771288215 19.540336861893778 -2.1434958951446488 0 0 0
6900 1 1 0 21.475156323706287 20.78237228926804 -1.6505631953616464 0 0 0
9750 1 2 0 23.046673689261457 20.5801918560334 -2.195355835326032 0 0 0
13320 1 2 0 19.562072518938592 18.086599429686697 -5.150115893512963e-07 0 0 0
9670 1 2 0 25.575004300231356 16.90374496564779 -2.195283054836891 0 0 0
9734 1 2 0 25.601298323361586 19.50164900711911 -2.2111866594456338 0 0 0
6889 1 1 0 26.448634782517768 18.18698089226919 -1.6499961670269474 0 0 0
9733 1 2 0 28.01387190691621 17.989762449422734 -2.2248471369129437 0 0 0
6901 1 1 0 24.61956289181794 20.712909248572387 -1.6427670925950126 0 0 0
9752 1 2 0 25.326255591851318 22.12591228175505 -2.1608766563699797 0 0 0
9735 1 2 0 28.862812528179358 20.290419853521556 -1.7241908144203673 0 0 0
6890 1 1 0 29.37211038575582 18.730404013359387 -1.5740412950213991 0 0 0
9731 1 2 0 30.899315086519703 18.446440710625886 -2.2249889410043417 0 0 0
6888 1 1 0 32.43274984473305 18.032341191749463 -1.6429060853649555 0 0 0
9732 1 2 0 33.74614849096065 18.9287812946514 -2.1167939233985575 0 0 0
6902 1 1 0 29.28853815231397 21.864139207275443 -1.56562395526474 0 0 0
9753 1 2 0 30.812170931549083 21.880899239687803 -2.2398549510540224 0 0 0
9738 1 2 0 33.70343244153391 21.44828616306546 -2.201721165966315 0 0 0
6859 1 1 0 39.69362697222473 17.46903851353066 -1.6466385530534777 0 0 0
6892 1 1 0 34.67332996650875 20.21389398568635 -1.6353239929243875 0 0 0
9737 1 2 0 36.27042846476028 20.163550904120356 -2.1904550061709815 0 0 0
9685 1 2 0 38.68028631081838 18.710373096915376 -2.16426646079766 0 0 0
6893 1 1 0 37.88111318664467 20.102602308718907 -1.649490569222066 0 0 0
9739 1 2 0 38.75800517634909 21.443475851762077 -2.1729001374559487 0 0 0
13299 1 2 0 39.68509796661334 17.476339553835203 -1.6374866889690255e-07 0 0 0
13333 1 2 0 37.85694778065525 20.102739784479972 -2.917555454662332e-08 0 0 0
9684 1 2 0 41.26377157097683 17.708817133856723 -2.1871919363987375 0 0 0
6860 1 1 0 42.8376491101106 17.823659452605458 -1.6452247630908454 0 0 0
9686 1 2 0 43.5833367010943 19.18928440932248 -2.214174207314448 0 0 0
6912 1 1 0 44.5013493260613 20.44326281177491 -1.645606529954051 0 0 0
9770 1 2 0 43.7958253746625 21.814968110385106 -2.219576541173381 0 0 0
13352 1 2 0 44.51525210155558 20.413076111699755 -3.49599330374532e-08 0 0 0
13300 1 2 0 42.80713226074104 17.828381917356808 -1.6132585516326307e-08 0 0 0
9656 1 2 0 48.801598805862184 16.74261278929274 -2.2308005818849126 0 0 0
6894 1 1 0 49.461990410026054 18.130035678965406 -1.644661891115262 0 0 0
9741 1 2 0 48.54249629551742 19.369505978227522 -2.217507319947074 0 0 0
9740 1 2 0 51.00734594691602 18.24869265872849 -2.2156130123258806 0 0 0
9769 1 2 0 46.0641639143489 20.419614783206658 -2.20705102538519 0 0 0
6913 1 1 0 47.61439100470414 20.605606802913886 -1.645383119270748 0 0 0
9771 1 2 0 48.323398735029656 21.9825706578945 -2.221786456083802 0 0 0
13334 1 2 0 49.46449192751994 18.13124116131284 -3.9098394159623594e-07 0 0 0
13353 1 2 0 47.59127748332569 20.627859419000387 -3.7990607359331377e-07 0 0 0
9694 1 2 0 53.3302757003839 16.88022216125593 -2.225649009341061 0 0 0
6895 1 1 0 52.55853268568577 18.21867019693063 -1.6459329629093669 0 0 0
9742 1 2 0 53.37294506482733 19.52887188514073 -2.22661071612978 0 0 0
6918 1 1 0 54.0598385221026 20.910408951343097 -1.6450866634427297 0 0 0
9779 1 2 0 53.15252446724517 22.164173205400104 -2.212201586059535 0 0 0
9778 1 2 0 55.608683712905666 21.04270089814447 -2.2136150735249798 0 0 0
13335 1 2 0 52.54837236321888 18.219304686184 -1.811966596897926e-07 0 0 0
13358 1 2 0 54.06743628501261 20.89664878265244 -1.0891534116176083e-07 0 0 0
9696 1 2 0 58.22714654094676 16.993994136627883 -2.2158892620137585 0 0 0
11896 1 2 0 62.6234324454792 17.190919572118773 -2.2300288725862067 0 0 0
6920 1 1 0 58.842066760476094 18.411682362271854 -1.6449065915651075 0 0 0
9780 1 2 0 57.879185582949916 19.615246160726645 -2.223057511525662 0 0 0
9782 1 2 0 60.37594447755956 18.615438612489996 -2.221219608799041 0 0 0
8327 1 1 0 61.92325046231022 18.561940656754487 -1.6452862573008262 0 0 0
6919 1 1 0 57.16243664573362 20.98116897587641 -1.6457086445341556 0 0 0
14767 1 2 0 61.91649748707198 18.556945411476537 -2.3655359662623503e-08 0 0 0
11897 1 2 0 67.44333829032097 17.37845791173452 -2.2135880121791502 0 0 0
11914 1 2 0 62.78627364949207 19.85089546918878 -2.208868793478821 0 0 0
8328 1 1 0 68.1886240787684 18.740626335958385 -1.645539154286928 0 0 0
11916 1 2 0 67.35421933662084 20.034660035151607 -2.2306546871701385 0 0 0
8342 1 1 0 63.49685149250108 21.231182766331862 -1.6453388189994729 0 0 0
11936 1 2 0 65.04373677105134 21.364546058076773 -2.216866381096265 0 0 0
8343 1 1 0 66.59711325694379 21.37583346145038 -1.6454072942320677 0 0 0
14768 1 2 0 68.18955173989687 18.742009441606267 -2.1807337122990074e-08 0 0 0
11899 1 2 0 72.10370560168919 17.604839795837353 -2.224136316954683 0 0 0
11915 1 2 0 69.7393206069439 18.83566462481117 -2.2113267057901744 0 0 0
8329 1 1 0 71.29178125281585 18.920855014914938 -1.6454833787116376 0 0 0
11917 1 2 0 72.03549991575596 20.29086514263055 -2.2044538284614346 0 0 0
8346 1 1 0 72.88253868791948 21.60219147500225 -1.6460352988095015 0 0 0
14769 1 2 0 71.29154663669 18.917832537686646 -4.988030579727264e-07 0 0 0
14786 1 2 0 72.88181745177516 21.60253218772693 -8.846916356994691e-07 0 0 0
11900 1 2 0 76.80060077579952 17.633695580976003 -2.2152661529977467 0 0 0
8333 1 1 0 77.62782887851823 18.953392773459612 -1.6458253548863926 0 0 0
11923 1 2 0 79.18991508581846 18.961830152568343 -2.2117887804365703 0 0 0
11941 1 2 0 74.44011656279989 21.540628774560336 -2.21100584492968 0 0 0
8347 1 1 0 75.99704131816237 21.612248989315404 -1.645264414777699 0 0 0
11924 1 2 0 76.8448315572774 20.3029710608543 -2.1974327287217754 0 0 0
14787 1 2 0 75.98329816136425 21.62269482453973 -9.585047966317175e-08 0 0 0
11904 1 2 0 81.4253443815226 17.462656001282074 -2.1974882921323187 0 0 0
8334 1 1 0 80.74962737190128 18.859115153040243 -1.6446744695893012 0 0 0
11925 1 2 0 81.73161081652668 20.05811433655541 -2.2229771320299867 0 0 0
8349 1 1 0 82.45083588013122 21.433243196203875 -1.644514164782916 0 0 0
11945 1 2 0 84.01273126643582 21.62274016353895 -2.199784958398515 0 0 0
14774 1 2 0 80.70937937407344 18.906937740258083 -4.558315229555861e-08 0 0 0
14789 1 2 0 82.50364122073856 21.398408242356258 -8.477830607994333e-08 0 0 0
11905 1 2 0 86.30676257683159 17.219445019510427 -2.18680753320883 0 0 0
11908 1 2 0 90.73226740366574 17.5141434250743 -2.214823458987882 0 0 0
8337 1 1 0 86.97799304409159 18.66578802551465 -1.6455050624667673 0 0 0
11930 1 2 0 86.12835041337827 20.00096375272658 -2.165492666065724 0 0 0
11929 1 2 0 88.52995094653087 18.923382667021006 -2.1968890371552 0 0 0
8338 1 1 0 90.09918517466775 18.928183896673335 -1.6451626435985487 0 0 0
8350 1 1 0 85.58822776141794 21.48795920470099 -1.6459724735847647 0 0 0
14790 1 2 0 85.58657455180818 21.53732859994217 -4.947434443177693e-08 0 0 0
11909 1 2 0 95.23701338989818 17.31613829942674 -2.199170895022059 0 0 0
11931 1 2 0 91.0457154170399 20.19521080424842 -2.187426402853438 0 0 0
8341 1 1 0 96.3367717452595 18.421300555081686 -1.646340569009018 0 0 0
11935 1 2 0 95.79742064320013 19.87153363173828 -2.2105347229435313 0 0 0
8355 1 1 0 91.99159408886082 21.46867682612575 -1.6465801413505912 0 0 0
11954 1 2 0 93.57868853807642 21.418069399043148 -2.1890463859939784 0 0 0
8356 1 1 0 95.15519421448933 21.284760496741168 -1.6483452691883422 0 0 0
14796 1 2 0 95.12665045362905 21.320671977561606 -4.6649859339911105e-07 0 0 0
6519 1 1 0 99.36095673624457 17.738812521071416 -1.637599685321375 0 0 0
9151 1 2 0 97.86877424467572 18.148115883852302 -2.241699766192452 0 0 0
9147 1 2 0 100.60274093315753 18.671790300229294 -2.231144534887841 0 0 0
9196 1 2 0 101.60008679599261 22.196161464490608 -2.2854624550829112 0 0 0
6898 1 1 0 9.81625006379119 22.55019366752264 -1.643898806007528 0 0 0
6940 1 1 0 7.882304367287832 24.942315330403712 -1.6179619133688263 0 0 0
9748 1 2 0 8.917649322016134 23.812658653440653 -2.252477144506068 0 0 0
9747 1 2 0 11.319959700429159 22.825859229166113 -2.196456591538202 0 0 0
9812 1 2 0 7.954510367900687 26.490491781864886 -2.222664372233582 0 0 0
13338 1 2 0 9.674004038583249 22.53221686598048 -2.8433493549922916e-07 0 0 0
9745 1 2 0 13.748452507605789 22.232669820041497 -2.138405735038218 0 0 0
9746 1 2 0 16.21049023315831 22.52421678790639 -2.3531307660796092 0 0 0
6899 1 1 0 12.713406720415055 23.454121981642576 -1.6326239565983651 0 0 0
9749 1 2 0 12.5534433750916 25.04963058746733 -2.1511798522075614 0 0 0
6928 1 1 0 17.08367168888162 23.662009751644852 -1.565443865428363 0 0 0
6965 1 1 0 13.101805013236865 26.552379176961246 -1.6459193957370573 0 0 0
9851 1 2 0 14.597443769517572 26.43455258025497 -2.3059429529687363 0 0 0
6966 1 1 0 16.07714665942259 26.48374625343974 -1.6388913548669324 0 0 0
9795 1 2 0 16.95734076131762 25.192120634630157 -2.2104476153244317 0 0 0
13339 1 2 0 12.898279370529538 23.545890810169166 -1.5010388894859614e-07 0 0 0
13368 1 2 0 16.56613202113753 23.77287029480791 -2.717719151057242e-07 0 0 0
13406 1 2 0 16.046664446901175 26.437013285005637 -8.568540083632468e-08 0 0 0
9751 1 2 0 20.98108043348346 22.28163129735687 -2.229267543638533 0 0 0
9794 1 2 0 18.550664946171327 22.949868597266512 -1.6524899721011632 0 0 0
6929 1 1 0 20.083600818639535 23.50967057460347 -1.5462106722945956 0 0 0
9796 1 2 0 19.915114348532793 25.021340753894272 -2.2269705400504054 0 0 0
6968 1 1 0 19.971788038917865 26.591534922270963 -1.6517449300514058 0 0 0
9855 1 2 0 21.40587192661006 26.989431284696515 -2.310066655758864 0 0 0
6970 1 1 0 22.798358381708198 27.46075978589376 -1.6406320119312605 0 0 0
13408 1 2 0 19.80730363168531 26.541072118925005 -1.026269461573342e-07 0 0 0
13410 1 2 0 22.750781701194136 27.51643719412708 -1.5966429152295376e-08 0 0 0
6930 1 1 0 26.507811182580397 23.17789067570522 -1.6504774744287452 0 0 0
9754 1 2 0 28.02944372365367 22.750250894269385 -2.2178841824270923 0 0 0