LAMMPS data file via write_data, version 2 Aug 2023, timestep = 2139, units = metal

15504 atoms
2 atom types

6.847947472388357 197.55069776062325 xlo xhi
5.838463668204218 171.01789783554318 ylo yhi
-100 100 zlo zhi

Masses

1 28.085
2 15.999

Atoms # full

9583 1 2 0 9.730856298875825 6.757539978326569 -2.170614504330582 0 0 0
6799 1 1 0 10.698789486842111 8.023629759174714 -1.642795647706535 0 0 0
9582 1 2 0 12.171198716325387 7.508702852163713 -2.1977762597576316 0 0 0
9581 1 2 0 10.381858676208033 9.606519652568881 -2.1594285282559587 0 0 0
6800 1 1 0 10.297766241540081 11.226829397188018 -1.6476852561610476 0 0 0
13259 1 2 0 10.63186694474804 8.079931049556379 -3.785224380850355e-06 0 0 0
13260 1 2 0 10.279485963543557 11.236936276376824 -2.7060691854853322e-06 0 0 0
6801 1 1 0 13.72103175275092 7.411760877250819 -1.6452799203546706 0 0 0
9587 1 2 0 14.51929397208576 6.071559367729289 -2.2427098842472075 0 0 0
6802 1 1 0 15.104387097117554 10.167597672868961 -1.6435476562990423 0 0 0
9586 1 2 0 14.414050170036658 8.786349850259139 -2.225565367863566 0 0 0
6812 1 1 0 18.001596275272746 9.203765815289032 -1.6437036336222786 0 0 0
9589 1 2 0 16.668757245559654 10.026293255132584 -2.1889115716024294 0 0 0
13261 1 2 0 13.749239346892024 7.373885568064841 -3.460744773070149e-06 0 0 0
13262 1 2 0 15.062186661982379 10.210998095242557 -3.893886198576688e-06 0 0 0
13272 1 2 0 17.990409145552416 9.157492439573266 -3.5272024158725857e-06 0 0 0
9605 1 2 0 18.131919928049044 7.630061585873115 -2.200094443920268 0 0 0
6813 1 1 0 18.88309933847837 6.253076672840666 -1.6435204682735898 0 0 0
9607 1 2 0 20.40627067541015 6.14604095930299 -2.2403469725261638 0 1 0
9610 1 2 0 22.75725342620391 6.904718352841124 -2.154303982399008 0 0 0
9606 1 2 0 19.266047400006055 10.097329834098373 -2.2096033967992748 0 0 0
9609 1 2 0 21.872734689385528 9.68362991943874 -2.249506397699599 0 0 0
6814 1 1 0 22.835239364542364 8.484837601710584 -1.6284110266816174 0 0 0
6815 1 1 0 20.69105562758828 10.703353803077043 -1.646879259637748 0 0 0
13273 1 2 0 18.824048707426467 6.277871847402053 -9.603850989239197e-07 0 0 0
13274 1 2 0 22.588268857715633 8.501043060265895 -3.064471510186691e-07 0 0 0
13275 1 2 0 20.737896166384452 10.727407679777599 -5.47025993407483e-07 0 0 0
6818 1 1 0 25.583850342978852 7.730659975814179 -1.6412418862027025 0 0 0
9616 1 2 0 25.5176089743096 6.204574504089277 -2.263695249068409 0 0 0
9611 1 2 0 24.39258934154743 8.792178612294492 -2.100636763827212 0 0 0
9615 1 2 0 26.963983141553513 8.388503261172424 -2.229375820124992 0 0 0
6819 1 1 0 27.74004745116495 9.708947777912107 -1.643652076065694 0 0 0
9618 1 2 0 29.257509815463894 9.575054054566072 -2.2325319122003475 0 0 0
9617 1 2 0 27.026100236913365 11.055510924488317 -2.251125552357204 0 0 0
13278 1 2 0 25.598624268225873 7.623683107314822 -7.458428430732195e-08 0 0 0
9627 1 2 0 30.745200927522607 7.351185184801974 -2.2093885932129766 0 0 0
6825 1 1 0 30.639238193478985 8.912221604330941 -1.6440537228816903 0 0 0
9628 1 2 0 31.75625826840429 9.987457756919367 -2.2186051280561463 0 0 0
9633 1 2 0 34.20882093523359 10.691768036278978 -2.2247634222628965 0 0 0
6828 1 1 0 32.75441318890985 11.176271809150629 -1.6434103696492972 0 0 0
9639 1 2 0 34.93135485628922 6.04080410607296 -2.2022433287261287 0 0 0
6832 1 1 0 36.07169458436704 7.116026446689566 -1.6445243631551236 0 0 0
9640 1 2 0 37.47455413512661 6.473727321799712 -2.2215262104028186 0 0 0
6838 1 1 0 38.88309270699174 5.8490520761498495 -1.6438626232269906 0 0 0
9646 1 2 0 40.03261561170708 6.896946108441995 -2.2062229850738477 0 0 0
6831 1 1 0 35.676361433443 10.248427291973885 -1.6429984630635424 0 0 0
9637 1 2 0 35.95450337603561 8.690827073140527 -2.1975399843798704 0 0 0
6837 1 1 0 40.45470530278635 11.164480689142454 -1.6427262714278874 0 0 0
13292 1 2 0 36.028009197220996 7.151151604121846 -8.895801457062675e-08 0 0 0
13291 1 2 0 35.74948819215196 10.203034930362001 -2.2613961612436571e-07 0 0 0
6836 1 1 0 41.05282045936997 8.074333924050839 -1.6450582253035553 0 0 0
9647 1 2 0 42.53526193243633 7.5836450058928895 -2.205292398240919 0 0 0
6840 1 1 0 43.90633989628913 6.841632734996618 -1.6440936364314558 0 0 0
9652 1 2 0 45.16195146342661 7.747988417515852 -2.2118674841961123 0 0 0
9645 1 2 0 40.6302372927417 9.59498986566856 -2.2049469211629136 0 0 0
9654 1 2 0 45.70839327353557 10.369005852319455 -2.2005158690651934 0 0 0
13300 1 2 0 43.88142497250362 6.805413139604166 -1.6444325395386988e-07 0 0 0
13296 1 2 0 41.04061963135797 8.117958877077351 -1.1211346999826847e-07 0 0 0
6849 1 1 0 49.107405953846474 7.719243663608668 -1.6446358109739647 0 0 0
9668 1 2 0 49.33008056059311 6.177186204824279 -2.2111399444946533 0 0 0
6841 1 1 0 46.21523846820919 8.884712208418586 -1.6446531185979838 0 0 0
9655 1 2 0 47.71092221724438 8.418808507317024 -2.207583151994713 0 0 0
6850 1 1 0 51.56177745922953 9.585362748348928 -1.6441456111300652 0 0 0
9667 1 2 0 50.38768824401279 8.5853018387407 -2.221399273040613 0 0 0
9669 1 2 0 51.205252332441866 11.087970372010101 -2.2219530106307133 0 0 0
13309 1 2 0 49.08640117163898 7.707694975987361 -5.163287233377477e-07 0 0 0
13301 1 2 0 46.2425656922906 8.909604031116023 -4.5478499233519185e-07 0 0 0
6855 1 1 0 54.47927546537036 8.532476340912792 -1.6445127255561949 0 0 0
9670 1 2 0 53.03200281159294 9.089155248851934 -2.2217440254090155 0 0 0
9677 1 2 0 54.754980144935615 7.014221054679228 -2.223182742764952 0 0 0
9678 1 2 0 55.704381243247354 9.471521289815215 -2.22597178280484 0 0 0
6860 1 1 0 56.945032328673705 10.386500934873697 -1.6440957806755157 0 0 0
13315 1 2 0 54.466206313328364 8.539483494661887 -4.2654830937925574e-07 0 0 0
6868 1 1 0 60.4606048850858 6.404363202755765 -1.6441836988450254 0 0 0
9695 1 2 0 60.23943284947167 7.924644553953979 -2.2297648123369505 0 0 0
9699 1 2 0 61.89908844702833 5.839698472832963 -2.2260833023705615 0 0 0
9686 1 2 0 58.387308408861514 9.837542585144421 -2.2275013100269305 0 0 0
6866 1 1 0 59.872110367554136 9.416091921571844 -1.6442244653814768 0 0 0
9696 1 2 0 61.02339227498016 10.441344430451032 -2.2270313712503906 0 0 0
13326 1 2 0 59.86079374306037 9.429350332390138 -3.3753880294467556e-07 0 0 0
8285 1 1 0 65.76441257694198 7.355277754127992 -1.6443784594328867 0 0 0
11851 1 2 0 64.5279527243108 6.435006643213761 -2.2263991596729293 0 0 0
11852 1 2 0 67.19652827169472 6.7705184180021405 -2.2235199219696233 0 0 0
8284 1 1 0 65.17404811967168 10.37683931766762 -1.6443766213117303 0 0 0
11849 1 2 0 65.5326379937544 8.878498524138397 -2.22680514646335 0 0 0
9736 1 2 0 63.69504431343486 10.825585757125255 -2.2245404063590475 0 0 0
14745 1 2 0 65.7720910882793 7.351829739267948 -1.1133001065267011e-07 0 0 0
8289 1 1 0 68.68163662725846 6.33607926611509 -1.644339745170876 0 0 0
11855 1 2 0 69.79378620610258 7.404260805324702 -2.2245388860947313 0 0 0
11856 1 2 0 72.44476922191271 7.692558016608313 -2.220519178021534 0 0 0
8291 1 1 0 73.93072304802642 7.254888503342106 -1.6444263977758313 0 0 0
8287 1 1 0 71.03132240945573 8.324915689004124 -1.6444255840190662 0 0 0
11854 1 2 0 70.81871346596127 9.85781773572915 -2.22129909833007 0 0 0
14747 1 2 0 71.03819297470527 8.331706656858685 -2.9535387828937525e-07 0 0 0
11879 1 2 0 79.56507780828724 6.675275917173275 -2.2187771642008687 0 0 0
8301 1 1 0 79.10749236848372 8.158073483170282 -1.6441026712872877 0 0 0
11861 1 2 0 75.00265397483177 8.366519048161525 -2.2211212003566274 0 0 0
8292 1 1 0 76.23671157794335 9.294548540143314 -1.6444618908294923 0 0 0
11864 1 2 0 77.62741564918566 8.611685602981092 -2.218966943777869 0 0 0
11863 1 2 0 76.04808965679838 10.837270100326931 -2.217089115098339 0 0 0
14761 1 2 0 79.09803084998819 8.132403087687205 -1.7336622120263117e-07 0 0 0
14752 1 2 0 76.24323977451841 9.316279698807609 -3.8153351291124274e-07 0 0 0
8310 1 1 0 85.02852609989137 6.202336202042484 -1.644073444922323 0 0 0
11890 1 2 0 84.48529801390859 7.637778880395643 -2.2375645969144653 0 0 0
11878 1 2 0 80.16213009821831 9.276528296356064 -2.227751503524194 0 0 0
8302 1 1 0 81.33410420990268 10.268015797805148 -1.644275897598124 0 0 0
11881 1 2 0 82.75570923453725 9.69662473743894 -2.245023360060253 0 0 0
8309 1 1 0 84.1760800858488 9.136500352254197 -1.6424414986170854 0 0 0
11891 1 2 0 85.33892122955585 10.133060243785819 -2.2170464496262574 0 0 0
14762 1 2 0 81.34183173493373 10.283347924841951 -1.2512393759544236e-07 0 0 0
11893 1 2 0 86.53870077822432 5.864563860634193 -2.211357936432 0 0 0
11900 1 2 0 88.8444477155415 7.204618482896867 -2.1770058420002396 0 0 0
11896 1 2 0 87.98991200396664 9.888771742290276 -2.209337405295104 0 0 0
8315 1 1 0 89.10363681419096 8.776360057891976 -1.6438875428349535 0 0 0
11901 1 2 0 90.58582483642346 9.31908083677661 -2.1615708998962813 0 0 0
8312 1 1 0 86.72287120621603 10.804636255371554 -1.6435086780203572 0 0 0
8324 1 1 0 94.27811317600863 7.968325641533808 -1.6435696399000386 0 0 0
11915 1 2 0 93.87260975134704 6.417128899905175 -2.16168170559251 0 0 0
11912 1 2 0 95.87837400692156 8.012249392141168 -2.1538080346653117 0 0 0
8318 1 1 0 91.89848223636926 10.21128183244856 -1.642680547861022 0 0 0
11906 1 2 0 93.23841342233759 9.235577794000031 -2.149179939190642 0 0 0
14784 1 2 0 94.22620385540738 8.036469921364686 -6.752723910163637e-08 0 0 0
11913 1 2 0 98.64157167049495 6.9314737745537185 -2.166182232540441 0 0 0
8322 1 1 0 97.47582423304328 8.03562637445741 -1.6435157784613768 0 0 0
11909 1 2 0 97.94392796178384 9.504925538461515 -2.2363715951550445 0 0 0
8320 1 1 0 98.10559442533923 11.026113929941578 -1.6474798621509097 0 0 0
9074 1 2 0 102.08716156531503 10.643432248191736 -2.2453935211569163 0 0 0
14780 1 2 0 98.06725331365726 11.013027709683575 -2.427015837474648e-07 0 0 0
9585 1 2 0 8.810345376805131 11.887108852337374 -2.1653664681070843 0 0 0
6805 1 1 0 7.350043834188316 12.580016252789209 -1.6446103277297022 0 0 0
9584 1 2 0 11.665536961357049 12.138381283503726 -2.12358224227053 0 0 0
9594 1 2 0 7.197210857128934 14.128680481699336 -2.218637825013589 0 0 0
9708 1 2 0 7.782023611002577 16.589909000749916 -2.238515092503678 0 0 0
13265 1 2 0 7.3922095796628815 12.510522469240145 -1.990291689273661e-06 0 0 0
6803 1 1 0 13.223035449560186 12.686466079766534 -1.6463791818588052 0 0 0
9588 1 2 0 14.32528181775311 11.536999000388693 -2.1921458814724026 0 0 0
9590 1 2 0 13.816008366573593 14.219855534863362 -2.131472862476481 0 0 0
9705 1 2 0 12.905307367306614 16.703964728317576 -2.1998269287692445 0 0 0
6872 1 1 0 14.217542076898678 15.826127375465179 -1.6455432911372811 0 0 0
9706 1 2 0 15.642455245129323 16.690879802270587 -2.1253411567715883 0 0 0
13263 1 2 0 13.190578106086189 12.722673546504149 -3.1519090904644053e-06 0 0 0
13332 1 2 0 14.307882238323371 15.767272499984138 -2.9947333078187396e-06 0 0 0
9612 1 2 0 20.786585195872625 12.269791897930437 -2.202300780449319 0 0 0
9622 1 2 0 20.43570166989812 15.067543479378097 -2.1886145983989636 0 0 0
6821 1 1 0 21.307786151249992 13.751136453249652 -1.645645794272811 0 0 0
9621 1 2 0 22.844972636612365 13.8762989912741 -2.239567421662416 0 0 0
6893 1 1 0 19.95872673881191 16.578180790794143 -1.6449047314167955 0 0 0
9738 1 2 0 18.394299278546928 16.829236216708793 -2.167351584118141 0 0 0
13281 1 2 0 21.27252377765092 13.755453888686448 -6.076261380197165e-07 0 0 0
13353 1 2 0 19.985154637171263 16.58485486921198 -3.657585555913148e-06 0 0 0
6820 1 1 0 26.85374456667227 12.569416514223516 -1.6441119727917333 0 0 0
6822 1 1 0 24.336719832278717 14.211888744687505 -1.6422399526479008 0 0 0
9619 1 2 0 25.408137331242344 13.106982542880473 -2.2255283053990023 0 0 0
9620 1 2 0 28.141884016230545 13.422259455960194 -2.214145873221925 0 0 0
6830 1 1 0 29.051237877787294 14.665352698998163 -1.6428680682448964 0 0 0
9623 1 2 0 24.83497165905628 15.666374332808562 -2.217830743111954 0 0 0
9636 1 2 0 28.33983062683131 16.01607902686629 -2.2400813533034776 0 0 0
9632 1 2 0 32.49233966366189 12.721981007086525 -2.202034363860491 0 0 0
9634 1 2 0 30.57776773270258 14.539566780231903 -2.238535530900305 0 0 0
6829 1 1 0 32.0896024259792 14.239802940611147 -1.6452210681930093 0 0 0
9635 1 2 0 33.05715518760132 15.480061521743254 -2.1917617223703107 0 0 0
6881 1 1 0 34.04847989914842 16.710541283452102 -1.6451642566400917 0 0 0
13289 1 2 0 32.12094307136431 14.233114778473567 -1.3831702847871412e-07 0 0 0
6839 1 1 0 37.70466553908279 12.65446809265406 -1.6445293059583566 0 0 0
9638 1 2 0 36.64199404154083 11.488991353625915 -2.189848199254911 0 0 0
9648 1 2 0 39.14180361464942 12.020487882554901 -2.192727455468424 0 0 0
9651 1 2 0 37.43459663195598 14.242759390268201 -2.1748153405072013 0 0 0
9718 1 2 0 35.572423913865826 16.298521836784136 -2.180593109463531 0 0 0
6880 1 1 0 37.08004971187366 15.822747866591042 -1.6445490556592466 0 0 0
13299 1 2 0 37.66479062945997 12.712834735927599 -1.4287523675824044e-07 0 0 0
9649 1 2 0 41.73059397212158 12.051170292363484 -2.195303793191771 0 0 0
9656 1 2 0 44.20901939285934 12.777967967021 -2.193332166108781 0 0 0
6842 1 1 0 45.53771828045205 11.932460504352164 -1.644736944224079 0 0 0
9658 1 2 0 42.09804179674166 14.740160299520237 -2.178789623313501 0 0 0
6843 1 1 0 42.70342449247385 13.267317049103797 -1.644377839951103 0 0 0
6884 1 1 0 41.95137437376018 16.334378564515227 -1.6436562574673033 0 0 0
13303 1 2 0 42.740179202734936 13.32134465248837 -5.413096420635127e-08 0 0 0
13302 1 2 0 45.49748508950985 11.908521084959485 -1.4862716032664901e-07 0 0 0
13344 1 2 0 41.86529726754924 16.29482655768634 -2.542425080399666e-07 0 0 0
9657 1 2 0 46.87976840374594 12.704597092905125 -2.215816174057243 0 0 0
6851 1 1 0 50.946389622843895 12.610434819794193 -1.6446906449838894 0 0 0
6852 1 1 0 48.04605606892824 13.712980992421748 -1.6436628161599938 0 0 0
9671 1 2 0 49.51428172147136 13.207219818641358 -2.2229407573391056 0 0 0
9673 1 2 0 47.661924247645004 15.210935541441144 -2.219415955558741 0 0 0
6886 1 1 0 47.42300876192586 16.738208963494223 -1.6449193832921651 0 0 0
13311 1 2 0 50.92766810917553 12.616604152745444 -1.0413978617479166e-07 0 0 0
13312 1 2 0 48.08379351203052 13.720858590191416 -4.0642469813762126e-07 0 0 0
13346 1 2 0 47.39931404540989 16.74834132004839 -1.1735665942709497e-08 0 0 0
9672 1 2 0 52.19087895385803 13.52189227659483 -2.2281356725886847 0 0 0
6862 1 1 0 53.46522732586884 14.38484458848022 -1.6438669173256877 0 0 0
9689 1 2 0 53.3273148719065 15.909582993758589 -2.233843145041224 0 0 0
9685 1 2 0 56.73565100729804 11.90607246379095 -2.231919752801722 0 0 0
6861 1 1 0 56.375509253832774 13.396545983353452 -1.6441544756656776 0 0 0
9687 1 2 0 54.88821650565743 13.797267951001217 -2.2308010943714573 0 0 0
6891 1 1 0 62.250693292503364 11.374622005109186 -1.6443429459918457 0 0 0
9735 1 2 0 62.01365575650323 12.893891903813142 -2.229730069064498 0 0 0
9688 1 2 0 57.523448957302186 14.424309429379829 -2.228371966930922 0 0 0
6890 1 1 0 58.74454226716585 15.36427873739137 -1.6442824702674046 0 0 0
9733 1 2 0 60.192711425900846 14.833822360847552 -2.2270335646238526 0 0 0
6892 1 1 0 61.67100536440201 14.392678537285235 -1.6443060269596776 0 0 0
9737 1 2 0 62.823998560097166 15.416737577257535 -2.226688887944466 0 0 0
13350 1 2 0 58.745641084764664 15.355526006832394 -1.4634271004452939e-08 0 0 0
11850 1 2 0 66.32260358617252 11.40643575041728 -2.2259587184710665 0 0 0
8290 1 1 0 67.52945461517444 12.367656551547498 -1.6444234138559752 0 0 0
11860 1 2 0 67.26672703691274 13.887606721651718 -2.225798522312211 0 0 0
8330 1 1 0 66.94533008539563 15.396196707191365 -1.6444586979921403 0 0 0
8331 1 1 0 64.01895752013436 16.39244811938757 -1.6444554588333593 0 0 0
11923 1 2 0 65.4755322069595 15.875728764856122 -2.2237866525447942 0 0 0
11924 1 2 0 68.11235710396747 16.40788413639811 -2.224053267150001 0 0 0
14750 1 2 0 67.53217300030008 12.365747942421168 -3.9906934710121506e-08 0 0 0
14790 1 2 0 66.93667332518213 15.400253341990137 -5.005892257398523e-07 0 0 0
14791 1 2 0 64.02066350914042 16.386394496526282 -3.838754416206278e-07 0 0 0
8288 1 1 0 70.45522903468589 11.362223554005505 -1.6445612829508571 0 0 0
11857 1 2 0 68.97636287690565 11.81980031755315 -2.2216010799578565 0 0 0
11858 1 2 0 71.58571390138275 12.416577363641366 -2.2225635898334515 0 0 0
11867 1 2 0 72.52858199077055 14.924472938008092 -2.2194088617721826 0 0 0
8294 1 1 0 72.78239043303766 13.395824981110367 -1.644499110902487 0 0 0
8335 1 1 0 72.21941789819704 16.44354033383961 -1.6447590661276785 0 0 0
14748 1 2 0 70.4483647143402 11.361090086129265 -1.957269597970445e-07 0 0 0
8293 1 1 0 75.6990714883891 12.352591870944424 -1.6447874088172245 0 0 0
11865 1 2 0 74.2244427315651 12.8297622291018 -2.2182374577304445 0 0 0
11866 1 2 0 76.82070591284774 13.422361827256028 -2.218176116320208 0 0 0
8304 1 1 0 77.99013936147352 14.439892219363399 -1.6444701838664715 0 0 0
11882 1 2 0 79.43969999773708 13.908729646761719 -2.2260272232508136 0 0 0
11884 1 2 0 77.74327268512863 15.970757979088077 -2.217868075930705 0 0 0
14753 1 2 0 75.69900012516622 12.34274325893486 -1.7591097547201788e-07 0 0 0
14764 1 2 0 77.97817148249119 14.44332907041402 -3.646949151909279e-08 0 0 0
11880 1 2 0 81.06512252484234 11.783112148400509 -2.230428112550698 0 0 0
8303 1 1 0 80.86151451268618 13.311769996484825 -1.6440787750287458 0 0 0
11883 1 2 0 82.08499495099868 14.249150603292549 -2.2204770064731374 0 0 0
11897 1 2 0 84.72532252605944 14.44451414068894 -2.2180802127706936 0 0 0
8314 1 1 0 83.33723401705655 15.156979897345826 -1.6450848189210414 0 0 0
11899 1 2 0 83.09461029868712 16.702339392445413 -2.204925750693953 0 0 0
14774 1 2 0 83.36592964999302 15.176935908048202 -3.402247591402501e-07 0 0 0
14763 1 2 0 80.85505915341281 13.30593563580391 -6.273540239031245e-07 0 0 0
11895 1 2 0 86.63570366572912 12.357940314686044 -2.2210159033124266 0 0 0
8313 1 1 0 86.16425557736487 13.843037581844683 -1.6404334042270403 0 0 0
11898 1 2 0 87.30477699541561 14.90085997512253 -2.162822240264015 0 0 0
11904 1 2 0 89.89411633990976 14.382055577631663 -2.1458521922855818 0 0 0
8319 1 1 0 88.73951683148954 15.518914552161817 -1.6365856234034097 0 0 0
14779 1 2 0 88.89990835212639 15.61299843362946 -3.535271264523227e-08 0 0 0
11903 1 2 0 91.60144023582542 11.848674063169739 -2.1246772638321367 0 0 0
8317 1 1 0 91.25153641608377 13.474417667400232 -1.6455273871536122 0 0 0
11905 1 2 0 92.41706948291835 14.518981243541463 -2.2119232862466847 0 0 0
8323 1 1 0 93.90030224821719 14.965603036509235 -1.6390032104303929 0 0 0
11910 1 2 0 94.79293632864973 13.638801219939571 -2.0963012275845885 0 0 0
8321 1 1 0 96.36328940806234 13.489658877562562 -1.633168537731815 0 0 0
11914 1 2 0 94.46360163452682 16.41532820953498 -2.239678146774991 0 0 0
14777 1 2 0 91.16780998497913 13.389669352832842 -1.5830815831650364e-07 0 0 0
14783 1 2 0 93.85218032735747 15.112839936094913 -1.5496597379938816e-07 0 0 0
9079 1 2 0 99.54708716148848 11.518887947615934 -2.2632706568533485 0 0 0
11908 1 2 0 96.98069515743263 12.089275237752705 -2.2490443520639727 0 0 0
6478 1 1 0 101.03723195839959 11.738916559798385 -1.6381931975452915 0 0 0
11911 1 2 0 96.95228191823223 14.931790956218725 -2.2064474673968184 0 0 0
9080 1 2 0 99.45024586657851 14.716162165679517 -2.2418118587682705 0 0 0
6479 1 1 0 100.95954809445368 14.59582960499945 -1.6455505185379988 0 0 0
9078 1 2 0 101.61262201564867 13.189692538745096 -2.1658995347262313 0 0 0
9076 1 2 0 101.79109348300503 15.849249099833605 -2.3000836445450377 0 0 0
8325 1 1 0 98.2874095859107 15.701715534406684 -1.6399940257178516 0 0 0
12938 1 2 0 100.96762402311987 11.657315972998664 -8.294510812132904e-08 0 0 0
6873 1 1 0 8.706666113847533 17.796071120974553 -1.6402546572424224 0 0 0
9707 1 2 0 10.21475421101504 17.46235596259139 -2.230537046480446 0 0 0
6874 1 1 0 11.742688349554594 17.74927494781383 -1.64603700528201 0 0 0
9709 1 2 0 7.938106685064239 19.189185321401467 -2.184303569295546 0 0 0
9710 1 2 0 12.021860910841003 19.247503686492266 -2.262291397717056 0 0 0
9787 1 2 0 11.181954656733273 21.832778368252274 -2.2892798142667656 0 0 0
6925 1 1 0 12.249584505721195 20.74124352627185 -1.6397298315570557 0 0 0
9789 1 2 0 8.546186093871983 21.98649274122089 -2.15617982777957 0 0 0
13333 1 2 0 8.844651288781785 17.821118629969316 -3.598025568377887e-06 0 0 0
13334 1 2 0 11.782077962828085 17.7022462575306 -3.0089827743584325e-06 0 0 0
6894 1 1 0 17.015001833336033 17.62545094081464 -1.6432673639660138 0 0 0
9740 1 2 0 17.29635389097312 19.245358559163513 -2.129812453092148 0 0 0
9788 1 2 0 13.76727962464443 21.07789333962038 -2.14807186353247 0 0 0
6933 1 1 0 14.864795139431136 22.18388149803575 -1.6421271338924825 0 0 0
9798 1 2 0 16.3102128737381 21.71816475405819 -2.258190460336947 0 0 0
6932 1 1 0 17.58565360849852 20.85572650622404 -1.646067156990829 0 0 0
13354 1 2 0 16.913112448871694 17.671607021148276 -2.2523842190849933e-06 0 0 0
13392 1 2 0 17.675998320792853 20.80367438182899 -4.6386966414228254e-06 0 0 0
13393 1 2 0 14.979797019224792 22.23813947151131 -4.75899424197064e-06 0 0 0
9739 1 2 0 20.975734501691722 17.79950692166753 -2.1844331280205815 0 0 0
6899 1 1 0 22.27739107869712 18.698993130199117 -1.6465974173299414 0 0 0
9748 1 2 0 22.332631743279077 20.256859437263056 -2.2153820283225776 0 0 0
9746 1 2 0 23.670837890409434 18.047384569027024 -2.2519857878686094 0 0 0
9799 1 2 0 18.874972751096646 21.849339817108554 -2.150377147993962 0 0 0
6944 1 1 0 22.693974254574453 21.77760946221938 -1.641286950312196 0 0 0
13359 1 2 0 22.241990175822163 18.708587697467042 -2.2113565689488418e-06 0 0 0
6898 1 1 0 24.936314891464644 17.200909193603756 -1.6419088860126725 0 0 0
9747 1 2 0 26.363246034689176 17.8355398933223 -2.1877068134119524 0 0 0
6900 1 1 0 27.886331935295562 17.47566953753984 -1.6440115085879383 0 0 0
9749 1 2 0 28.998519541097796 18.51444205435505 -2.248343297939767 0 0 0
9755 1 2 0 28.835354053504645 21.054740079897467 -2.2065765428281954 0 0 0
6904 1 1 0 29.782293418608283 19.827260306965577 -1.6444931994675445 0 0 0
6903 1 1 0 32.90262681641418 19.687679503932852 -1.6457488050424571 0 0 0
9753 1 2 0 31.33805022425123 19.79783733268736 -2.2132677992667174 0 0 0
9720 1 2 0 33.58408391577474 18.24050774177531 -2.182537186958937 0 0 0
9754 1 2 0 33.68952103076638 21.08737738509688 -2.150626911660339 0 0 0
13364 1 2 0 29.8345675899499 19.85995591876021 -2.1138332125382603e-07 0 0 0
9719 1 2 0 38.09792088215595 17.065836885197456 -2.1480726207980076 0 0 0
6885 1 1 0 39.29432307119749 18.147183204138205 -1.645831136167542 0 0 0
9726 1 2 0 39.082236269491226 19.8023058064649 -2.130051691623029 0 0 0
6937 1 1 0 39.033080117516704 21.481645111733055 -1.6434977318641577 0 0 0
9806 1 2 0 40.405782543030334 22.266834447524122 -2.18669170546046 0 0 0
13397 1 2 0 38.96976481108022 21.385900068395575 -1.8333098628061004e-07 0 0 0
9724 1 2 0 40.69419334499615 17.33211642132824 -2.1607959168142292 0 0 0
9725 1 2 0 43.35795233155486 16.99127875900116 -2.2071285826998923 0 0 0
6887 1 1 0 44.56242298480793 17.956770779831036 -1.6437710814414126 0 0 0
9727 1 2 0 46.00814754413503 17.3809087974107 -2.22171388090208 0 0 0
9729 1 2 0 44.185543245294525 19.459233471950878 -2.2211550134440587 0 0 0
9810 1 2 0 42.998934244260504 21.947624819411036 -2.2188649839720465 0 0 0
6940 1 1 0 44.22217371458274 21.002578637570746 -1.6432772774375017 0 0 0
9811 1 2 0 45.626020467570356 21.60553300506819 -2.2406052128804244 0 0 0
13347 1 2 0 44.610071380248215 17.96620648889167 -7.065934954979575e-08 0 0 0
9728 1 2 0 48.69021531205311 17.61298723390377 -2.234211641558366 0 0 0
9767 1 2 0 51.40510898691383 17.704805801397445 -2.229761480100761 0 0 0
6913 1 1 0 50.0210703986899 18.375683773421482 -1.643659575896833 0 0 0
9769 1 2 0 49.987653430391106 19.900157836936728 -2.2407511815290926 0 0 0
6942 1 1 0 49.67741304118792 21.38888279788203 -1.6437596525872928 0 0 0
9813 1 2 0 48.239118432436655 21.86866154187416 -2.2624356754757855 0 0 0
13373 1 2 0 50.012361941140995 18.348419846255023 -1.175089556137897e-06 0 0 0
6912 1 1 0 52.910245632127534 17.381233163384408 -1.6440803956539027 0 0 0
9768 1 2 0 54.017049620322325 18.44866588735656 -2.2327989373013084 0 0 0
6916 1 1 0 55.256013054378606 19.359264774147547 -1.6443627994091612 0 0 0
9772 1 2 0 56.691899287040684 18.806105077065553 -2.2290659669635575 0 0 0
9773 1 2 0 55.04365334860773 20.873063553349336 -2.241843590670675 0 0 0
13372 1 2 0 52.90841916985265 17.4081746553508 -3.114303438245467e-07 0 0 0
9734 1 2 0 58.50702483619208 16.879651409248275 -2.2340164489702636 0 0 0
6917 1 1 0 58.1696394026671 18.37531526777809 -1.6440844853306178 0 0 0
9774 1 2 0 59.31654826546039 19.399997918651014 -2.23104277720575 0 0 0
9881 1 2 0 61.95524835488549 19.889953747294783 -2.226420429989981 0 0 0
6985 1 1 0 60.49585441409006 20.388327938653305 -1.644434004532071 0 0 0
9879 1 2 0 60.18816014504727 21.892731461912494 -2.2348770435822205 0 0 0
13377 1 2 0 58.1689805869108 18.388078076160255 -4.416872139390688e-08 0 0 0
13445 1 2 0 60.500563108965146 20.385831569815867 -4.4262543318711724e-07 0 0 0
11925 1 2 0 63.742028875400656 17.907531320290047 -2.228223116407873 0 0 0
8344 1 1 0 63.42287189311658 19.413971189377957 -1.6443298020394614 0 0 0
11942 1 2 0 64.58230659243667 20.42995147669151 -2.2267427673038167 0 0 0
8364 1 1 0 65.73177183558217 21.458923948132533 -1.6445875785321282 0 0 0
11969 1 2 0 67.2054600087073 20.9817099449987 -2.2205236255278167 0 0 0
14804 1 2 0 63.41769068680127 19.416132247884907 -5.018669854745151e-08 0 0 0
14824 1 2 0 65.73831258298311 21.45572175328866 -1.2655728114764462e-07 0 0 0
11930 1 2 0 70.7489918582514 16.9362292860111 -2.2189553952639485 0 0 0
8336 1 1 0 69.2775512796194 17.42264742983481 -1.6445563776801113 0 0 0
11931 1 2 0 73.38487409306147 17.467065673108777 -2.2181280161207946 0 0 0
11932 1 2 0 68.94751184297212 18.93237462607418 -2.2231984097951902 0 0 0
8363 1 1 0 68.6607959515264 20.45088699342667 -1.6445485696148623 0 0 0
11970 1 2 0 69.85376516606783 21.432855841954044 -2.2239597264492845 0 0 0
11972 1 2 0 72.48469836294106 22.007627823588646 -2.2203955208913513 0 0 0
8365 1 1 0 73.95918410032145 21.531094265107075 -1.6446534543673796 0 0 0
14796 1 2 0 69.28053910677443 17.418780366200544 -2.3994467960633456e-07 0 0 0
14823 1 2 0 68.65208101267652 20.448662710518917 -2.812998288778656e-07 0 0 0
14825 1 2 0 73.9583289524581 21.53042097839356 -1.40718916868924e-07 0 0 0
11933 1 2 0 76.02440958915982 18.009655397422655 -2.218718482860869 0 0 0
8337 1 1 0 77.48995984818136 17.503239593307992 -1.644684428545776 0 0 0
8338 1 1 0 74.55140313182443 18.49012583446399 -1.6445104353021593 0 0 0
11935 1 2 0 74.25627233809715 20.01050083586198 -2.219066956642672 0 0 0
11934 1 2 0 78.66644345927506 18.52455029259321 -2.2077484909868983 0 0 0
11953 1 2 0 79.70698132079211 21.034771897454775 -2.2011101647031044 0 0 0
14798 1 2 0 74.54302189712803 18.482779146177737 -3.514679885044728e-07 0 0 0
8351 1 1 0 79.9054030045563 19.47678546209491 -1.645314785291926 0 0 0
11951 1 2 0 81.3303760058372 18.828666678557767 -2.205615687355911 0 0 0
8350 1 1 0 82.779635215648 18.235189963897945 -1.6442643664868648 0 0 0
11952 1 2 0 83.98106730181189 19.219135418799933 -2.207027554814422 0 0 0
8354 1 1 0 85.2412897682073 20.136143395450166 -1.6450695850749955 0 0 0
11957 1 2 0 84.91021145329516 21.70449312305098 -2.1806609598938875 0 0 0
14811 1 2 0 79.90072444439296 19.48451924834524 -5.667073591206378e-07 0 0 0
14810 1 2 0 82.74917393596779 18.224092528918057 -3.6122212689681297e-08 0 0 0
11907 1 2 0 88.57664039275213 17.13101135442342 -2.1642103567541553 0 0 0
11955 1 2 0 86.64528324024799 19.3659826026409 -2.1646240948162827 0 0 0
8353 1 1 0 88.09889027697012 18.666662166123974 -1.6446127038305443 0 0 0
11956 1 2 0 89.27651988911612 19.701275941638496 -2.194630014950355 0 0 0
8356 1 1 0 90.1815075567962 20.96993808057942 -1.6454793449551677 0 0 0
14813 1 2 0 88.0235362461337 18.62438620274919 -4.484804457952285e-07 0 0 0
14816 1 2 0 90.20269888760984 20.987315571487603 -3.950058164413244e-07 0 0 0
8341 1 1 0 94.88500613794423 17.916532344173056 -1.640322481160021 0 0 0
11939 1 2 0 93.64650975019565 18.894102618278772 -2.139618442807901 0 0 0
11937 1 2 0 96.3199473083463 18.6090605744571 -2.170455257291996 0 0 0
11958 1 2 0 91.7301734102695 20.796372093968884 -2.228624288975903 0 0 0
8355 1 1 0 93.23074860717846 20.412878100700556 -1.641752669360401 0 0 0
11959 1 2 0 94.43265083594339 21.376615750482514 -2.2539182280769086 0 0 0
14815 1 2 0 93.1957744230447 20.52074082782331 -2.7204045888154574e-07 0 0 0
11916 1 2 0 98.52062266226594 17.213971733167966 -2.2297937292116137 0 0 0
8340 1 1 0 97.90923708566231 18.63749352802971 -1.6432810193307879 0 0 0
11938 1 2 0 98.96633136486248 19.79408384088909 -2.217097247612638 0 0 0
8343 1 1 0 99.97792769912141 20.997659081161675 -1.6395897810506173 0 0 0
9206 1 2 0 101.53539657408717 21.110939706533273 -2.2172073047842655 0 0 0
14800 1 2 0 97.90983607271758 18.76069060442977 -9.834187564574268e-08 0 0 0
14803 1 2 0 100.04488634766464 20.86176706052324 -1.6872467301590133e-07 0 0 0
6927 1 1 0 7.159534301718252 22.661773574876097 -1.5390736254848871 0 0 0
6926 1 1 0 9.950116250966104 22.696902185796446 -1.6267231052572233 0 0 0
9790 1 2 0 9.67305154935049 24.19652170825019 -2.2509083861475525 0 0 0
9848 1 2 0 7.804907619210732 26.363744875510974 -2.296217891252684 0 0 0
6964 1 1 0 9.137566622446062 25.62746250081594 -1.640057232743322 0 0 0
9847 1 2 0 10.240373681103248 26.646387131065058 -2.2264584443516564 0 0 0
6966 1 1 0 11.70637572428769 27.038515445809043 -1.6491600748612925 0 0 0
6965 1 1 0 13.898930453940928 24.998485032664007 -1.5814394007011419 0 0 0
9800 1 2 0 14.363492431162195 23.60706010253 -2.3148451650035717 0 0 0
9849 1 2 0 12.563848126477282 25.717866284209787 -2.2275990387677234 0 0 0
9850 1 2 0 15.180050099008318 26.013506787754523 -1.8130429924581737 0 0 0
6970 1 1 0 15.041164323535407 27.634888095240406 -1.5899284829875586 0 0 0