LAMMPS data file via write_data, version 2 Aug 2023, timestep = 1645, units = metal

15360 atoms
2 atom types

6.316181310581925 197.32150096575987 xlo xhi
6.008785094544782 169.89838570829113 ylo yhi
-100 100 zlo zhi

Masses

1 28.085
2 15.999

Atoms # full

6800 1 1 0 7.420857084961672 7.3382327542975005 -1.6337443220925074 0 0 0
6799 1 1 0 10.510285911225518 6.620641363940539 -1.648170253297564 0 0 0
9595 1 2 0 8.895692027059075 6.703769708889682 -2.1679552061632634 0 0 0
9584 1 2 0 11.665169436436152 7.748008733294653 -2.1629211068344674 0 0 0
6795 1 1 0 7.251228678704559 10.380859459215205 -1.6448084370608238 0 0 0
9589 1 2 0 7.537088887820262 8.879493017758529 -2.196110585237078 0 0 0
9580 1 2 0 8.449330338122754 11.33924997114128 -2.232997427543325 0 0 0
9579 1 2 0 10.784373303236665 10.079782287411735 -2.213764818468804 0 0 0
6790 1 1 0 9.97945136585449 11.373120663480726 -1.6404306825687902 0 0 0
13199 1 2 0 10.464905827246106 6.679192349376555 -1.9561754479889482e-08 0 0 0
13195 1 2 0 7.226296837222308 10.382787395633367 -9.688071993752406e-08 0 0 0
9600 1 2 0 17.466869445613376 6.914570070228105 -2.1546128340767097 0 0 0
6792 1 1 0 12.106793014782939 9.288476594503459 -1.6323707546744206 0 0 0
9583 1 2 0 13.394416445243442 10.25505809835462 -2.166640679911297 0 0 0
9598 1 2 0 17.495395995831764 9.87357353345493 -2.1773420684479343 0 0 0
6802 1 1 0 17.232742402388418 11.447255227829997 -1.6439807100143664 0 0 0
13202 1 2 0 17.36477169801338 11.451068032818823 -1.4273891636293464e-07 0 0 0
6793 1 1 0 14.145608531636693 11.680350220227258 -1.6469676197396852 0 0 0
9586 1 2 0 15.700944990987495 11.709196470083716 -2.1994477801715058 0 0 0
6801 1 1 0 18.117465085174622 8.402856582754993 -1.6381441498397438 0 0 0
9603 1 2 0 22.28781584758292 8.397471028470335 -2.165764617676832 0 0 0
6810 1 1 0 22.429532743227583 6.833169919231164 -1.641517558124091 0 0 0
9599 1 2 0 19.692733049162495 8.576841106347699 -2.149546358042193 0 0 0
6803 1 1 0 21.05625567498704 9.375266553104504 -1.6401132095262378 0 0 0
9602 1 2 0 21.36614078743535 10.887855446234164 -2.257105283453347 0 0 0
13210 1 2 0 22.511002615088497 6.786456691007657 -2.9808342928051524e-08 0 0 0
13201 1 2 0 17.967904463445088 8.368016221987222 -4.316706172181362e-08 0 0 0
9613 1 2 0 23.824504569040027 6.209608489344308 -2.2621781310190943 0 0 0
6813 1 1 0 25.360788321089128 6.120889870718238 -1.6460354287251953 0 0 0
9616 1 2 0 26.146518623883715 7.478028821075121 -2.197934703269573 0 0 0
9617 1 2 0 28.709898611392006 7.7192816895542595 -2.220169211567417 0 0 0
6811 1 1 0 27.353655681796152 8.48202531037212 -1.6452971724183507 0 0 0
9615 1 2 0 27.19457415538364 10.061887386148255 -2.1928894589525885 0 0 0
6812 1 1 0 27.234421891816705 11.65455901586379 -1.645817403622782 0 0 0
6816 1 1 0 30.082127049205475 7.006148929447837 -1.6434996115823333 0 0 0
9623 1 2 0 31.257142213136323 7.9857565367464485 -2.2372773545262894 0 0 0
9629 1 2 0 33.877806927105695 7.8271795414770535 -2.2418114193688576 0 0 0
6819 1 1 0 32.61282306609697 8.680604973547542 -1.6439030348954828 0 0 0
9627 1 2 0 32.67631801419095 10.202395560477466 -2.2500342581742587 0 0 0
13219 1 2 0 32.627416084582336 8.694074309860378 -2.6805723612753305e-08 0 0 0
6818 1 1 0 32.64220547413519 11.731460646538908 -1.644911108432306 0 0 0
13218 1 2 0 32.63118563340758 11.732320783622752 -7.32362552382014e-08 0 0 0
6874 1 1 0 34.97215112232874 6.758916296626952 -1.6445151635616984 0 0 0
9657 1 2 0 36.40687100888204 7.276821049251048 -2.249939299851347 0 0 0
6834 1 1 0 37.72739155158677 8.047010175577617 -1.6443267304274187 0 0 0
9656 1 2 0 38.99820650780709 7.18094133677693 -2.218648412721226 0 0 0
9654 1 2 0 37.81232701679257 9.588976031275221 -2.227544288165304 0 0 0
6833 1 1 0 37.922648718826146 11.13193561131244 -1.6455966673606757 0 0 0
13274 1 2 0 34.975623525515125 6.74913984764461 -4.943719863643519e-07 0 0 0
13234 1 2 0 37.70588097033955 8.076247929048746 -2.3348822589467487e-07 0 0 0
9644 1 2 0 39.30842587293197 11.809905688967948 -2.2299252954541884 0 0 0
13233 1 2 0 37.929537544035085 11.12942925122728 -7.246129265779387e-08 0 0 0
6835 1 1 0 40.043870390973304 6.046168073431716 -1.6442294497585008 0 0 0
9652 1 2 0 41.50787585697909 6.576076830631483 -2.213213643405635 0 0 0
6832 1 1 0 42.804077717228175 7.437302236484561 -1.6451224140162803 0 0 0
9653 1 2 0 44.12831770582857 6.658344345536222 -2.2305155525876286 0 0 0
9642 1 2 0 42.90011970611283 8.992276128243159 -2.21544496874097 0 0 0
6826 1 1 0 43.173235489034056 10.524941935645893 -1.6452853072984477 0 0 0
9641 1 2 0 44.593352256494995 11.160993327720332 -2.216759204669597 0 0 0
13226 1 2 0 43.19601481963303 10.515520032683634 -5.907664295370704e-08 0 0 0
9640 1 2 0 41.95592735856141 11.473556913409451 -2.2273966855909846 0 0 0
9661 1 2 0 46.72297266030158 6.282041457590636 -2.2161839273652966 0 0 0
6837 1 1 0 48.06253837078884 7.071476104024185 -1.644888357941484 0 0 0
9662 1 2 0 49.376364907851546 6.277412430375923 -2.233368192047426 0 0 0
6836 1 1 0 48.482580338471415 10.145227265025007 -1.6450202780982865 0 0 0
9659 1 2 0 48.197643460854806 8.618627627704196 -2.2172486496685218 0 0 0
9660 1 2 0 49.90975160389605 10.768480429985425 -2.215657002460527 0 0 0
9646 1 2 0 47.26182037092802 11.087816912631531 -2.226417207714544 0 0 0
13236 1 2 0 48.505296902303314 10.135379539481502 -3.572231000038874e-08 0 0 0
6843 1 1 0 53.37404170109456 6.690132519181259 -1.6448417899540801 0 0 0
9669 1 2 0 53.53946784105087 8.231728129407497 -2.218597899592033 0 0 0
6842 1 1 0 53.82615492939348 9.755696388145202 -1.644965827253594 0 0 0
9665 1 2 0 52.594969750759596 10.686722301894184 -2.2253374845971896 0 0 0
9670 1 2 0 55.26203764151277 10.362744306479398 -2.213708460566239 0 0 0
6847 1 1 0 56.65240661343785 11.06836904151429 -1.645149262075437 0 0 0
13243 1 2 0 53.35048336409289 6.691360605908921 -2.2630422903298007e-07 0 0 0
13242 1 2 0 53.847971572766646 9.751259171226891 -4.115284983619807e-08 0 0 0
13247 1 2 0 56.638667814989816 11.064078420417722 -7.090662676809941e-08 0 0 0
6839 1 1 0 51.28360755046135 11.500985494763146 -1.645088716510108 0 0 0
13239 1 2 0 51.26766608964415 11.49950093068726 -1.2187617058188652e-07 0 0 0
6852 1 1 0 58.74072634093809 6.274323518727686 -1.6450743282820808 0 0 0
9682 1 2 0 58.9706160120539 7.809212051344751 -2.2170198097558798 0 0 0
9678 1 2 0 57.96263051368132 10.245006729923599 -2.2223391166261917 0 0 0
6850 1 1 0 59.21958540271846 9.34217698584283 -1.6451650179526371 0 0 0
9683 1 2 0 60.65252544768959 9.965616858706582 -2.2098841829440192 0 0 0
6881 1 1 0 62.06539214155394 10.635123714947365 -1.6452309308231527 0 0 0
13252 1 2 0 58.7224532351525 6.280985397485168 -2.472127759459775e-07 0 0 0
13250 1 2 0 59.235841759714326 9.344345048742515 -4.8809634771072436e-08 0 0 0
13281 1 2 0 62.047548548328294 10.627918666082552 -3.794542026561148e-08 0 0 0
11741 1 2 0 64.37219780993642 7.3516241609664865 -2.2170246059804564 0 0 0
9730 1 2 0 63.36274712746306 9.786414522664149 -2.219737444096331 0 0 0
8209 1 1 0 64.6230959147407 8.883852996319265 -1.6452925649610224 0 0 0
8211 1 1 0 67.48545111395825 10.137217089963737 -1.6446189076974407 0 0 0
11742 1 2 0 66.06675799173757 9.4809889777067 -2.212812861389533 0 0 0
11744 1 2 0 67.65146831233972 11.679089114560645 -2.2080911015151363 0 0 0
11749 1 2 0 69.69943302512345 6.868342411216063 -2.2185348320192944 0 0 0
8214 1 1 0 70.03544406230758 8.381544165855926 -1.6453438375361258 0 0 0
11745 1 2 0 68.80322567584368 9.321862132204892 -2.2224501067125337 0 0 0
11750 1 2 0 71.51371238561288 8.896550673282219 -2.210338795049487 0 0 0
8217 1 1 0 72.9364749495066 9.55438162879244 -1.644593923637705 0 0 0
11754 1 2 0 73.06147971761185 11.095770179511305 -2.212931198430456 0 0 0
14614 1 2 0 70.05424215670983 8.40141453800227 -1.2761909131961307e-07 0 0 0
14617 1 2 0 72.91612813473229 9.509198627648455 -1.8017273376399915e-08 0 0 0
8220 1 1 0 75.51981165654173 7.836937179553503 -1.6450020448231202 0 0 0
11759 1 2 0 75.10218025145811 6.341534593265033 -2.2185236254381633 0 0 0
11760 1 2 0 77.02072623961553 8.325405743533619 -2.195459706190134 0 0 0
11755 1 2 0 74.29352896954035 8.795838411622398 -2.213810159471825 0 0 0
8225 1 1 0 78.51583037989246 8.85499409773037 -1.6488471252993544 0 0 0
11767 1 2 0 78.8249250885083 10.387596584420663 -2.198112117332754 0 0 0
14625 1 2 0 78.48885757607977 8.816646493156949 -4.94661640026082e-08 0 0 0
11768 1 2 0 79.80928844995145 7.975452949644563 -2.23348149304475 0 0 0
8228 1 1 0 80.67606296357174 6.696518812498633 -1.6197368333597293 0 0 0
11773 1 2 0 82.20144029548993 6.398072709895438 -2.226856320824134 0 0 0
8234 1 1 0 83.73032993707771 6.041940877569918 -1.6469206672626213 0 0 0
11782 1 2 0 84.68655048386677 7.240496325085916 -2.2336548513777696 0 0 0
14628 1 2 0 80.8526658427582 6.929622141664084 -9.018612875616001e-08 0 0 0
11785 1 2 0 87.2325024003544 7.990712809489774 -2.2681499062258 0 0 0
8235 1 1 0 85.73144047109687 8.356169412867573 -1.6470176351951973 0 0 0
8240 1 1 0 88.70711976495193 7.6384904233800945 -1.60668760197964 0 0 0
11793 1 2 0 89.47402654148598 6.329016673857609 -2.2614296321699814 0 0 0
11784 1 2 0 85.10550953760001 9.78124526614043 -2.198319416301538 0 0 0
11792 1 2 0 89.77138351211093 8.825333541561909 -1.9362303122017255 0 0 0
8241 1 1 0 90.44797325791062 10.269571243573381 -1.5997664285894482 0 0 0
8236 1 1 0 85.04043216003554 11.33873125317782 -1.6423915736835384 0 0 0
11794 1 2 0 89.34402229393429 11.35123998471311 -2.2370444244283205 0 0 0
14636 1 2 0 84.99788248138925 11.43321294431605 -8.998025803967411e-08 0 0 0
14635 1 2 0 85.79596316835456 8.380096876303206 -5.609944935926769e-08 0 0 0
8246 1 1 0 93.78863303341366 6.415589540220398 -1.643707720992851 0 0 0
11802 1 2 0 93.96758144634437 8.02987459706282 -2.1549427371410648 0 0 0
11795 1 2 0 91.99569714769574 10.111390565093608 -2.2124401780855734 0 0 0
8247 1 1 0 93.49522111327099 9.580731668479899 -1.6493412668574188 0 0 0
11804 1 2 0 94.5731795434839 10.74947305109429 -2.1775216091082163 0 0 0
14647 1 2 0 93.46667800351374 9.544867276099893 -2.8180115580030844e-07 0 0 0
11798 1 2 0 92.26753986449854 6.033832509289038 -2.1955325828092658 0 1 0
6410 1 1 0 100.92796983731041 6.409142997438656 -1.6461206942554678 0 0 0
8977 1 2 0 100.55651227416693 8.023313026436485 -2.118857377426451 0 0 0
6409 1 1 0 100.78610595396263 9.659088692033839 -1.6482087638246545 0 0 0
8978 1 2 0 99.5925919731083 10.782777038225651 -2.153278931826455 0 0 0
12810 1 2 0 100.87272594977532 6.381500652602674 -1.772318476818517e-07 0 0 0
9578 1 2 0 10.70076262745155 12.714521751184492 -2.234136055578706 0 0 0
6791 1 1 0 10.387899662790451 14.220101801079782 -1.6430357841011736 0 0 0
9582 1 2 0 8.907575018196843 14.626262654128933 -2.2607981113942954 0 0 0
9581 1 2 0 11.701939158015513 15.113790659484117 -2.1018591448462014 0 0 0
9590 1 2 0 6.4616879872045185 16.039559344949403 -2.2614996130651415 0 0 0
6796 1 1 0 7.984484594436038 15.849429844336928 -1.6381960680208363 0 0 0
13191 1 2 0 10.28170176828513 14.230801386299113 -1.0142711358692336e-07 0 0 0
9591 1 2 0 8.880302238004015 17.13457055332684 -2.0928796996593966 0 0 0
9585 1 2 0 13.578602177794734 13.15747194944568 -2.210598641471963 0 0 0
6794 1 1 0 13.252931874661963 14.69147661630197 -1.6364914539540698 0 0 0
9587 1 2 0 14.188337037048663 15.967467551109456 -2.187934940109527 0 0 0
6853 1 1 0 14.187951963646615 17.55697742675719 -1.6495008390256072 0 0 0
13253 1 2 0 14.197933783133724 17.57278249064269 -6.525785903477437e-08 0 0 0
9601 1 2 0 18.156520018089637 12.768113103502948 -2.179238170739857 0 0 0
6804 1 1 0 21.83143346447312 12.366825075625334 -1.6382795235757328 0 0 0
6805 1 1 0 19.197254995832207 13.996526003974783 -1.6341425349890009 0 0 0
9606 1 2 0 19.078751958409203 15.609376565619346 -2.175434093878633 0 0 0
9604 1 2 0 20.719473804035168 13.507718237382283 -2.091239233112128 0 0 0
13204 1 2 0 21.940558232401454 12.254164832134563 -9.635412589595268e-08 0 0 0
13205 1 2 0 19.003313667877674 14.070290893396377 -9.853750429018484e-08 0 0 0
6858 1 1 0 19.33384211143206 17.21190681629923 -1.6468823745977788 0 0 0
13258 1 2 0 19.328703635345395 17.157270311694173 -5.084423652461801e-08 0 0 0
9605 1 2 0 23.30117283528337 12.866886338339285 -2.2283031360398695 0 0 0
9618 1 2 0 25.95188718462842 12.580209940079857 -2.188833405587312 0 0 0
9619 1 2 0 28.61765505485663 12.406429812256121 -2.1916178731642355 0 0 0
6814 1 1 0 24.703228374603523 13.554958360399294 -1.6469009671803658 0 0 0
9621 1 2 0 24.793237980413878 15.145228772561554 -2.1738102015183327 0 0 0
6860 1 1 0 24.824885745767613 16.738797361339003 -1.6455739830617826 0 0 0
13260 1 2 0 24.828007520073008 16.73769199173107 -8.274016736004858e-09 0 0 0
9698 1 2 0 23.51657984904673 17.642542830564324 -2.1787745457535603 0 0 0
9699 1 2 0 26.224224653409674 17.458707914320748 -2.203745959591676 0 0 0
9625 1 2 0 31.30054983959444 12.48892395493072 -2.2300381954474733 0 0 0
9628 1 2 0 33.992209489428284 12.474541132180827 -2.2234497167195837 0 0 0
6817 1 1 0 29.94669815507739 13.237337351881227 -1.6448791245408603 0 0 0
9626 1 2 0 29.98281173927485 14.795582671419487 -2.2138794404374607 0 0 0
6864 1 1 0 30.19745816874618 16.34040096760578 -1.6456825871345233 0 0 0
9711 1 2 0 34.34079324406535 16.86187436554265 -2.2147758849336476 0 0 0
13264 1 2 0 30.216559571078548 16.335983054725602 -1.8269638994953046e-07 0 0 0
9704 1 2 0 28.936713915417723 17.255380623374517 -2.213487446904835 0 0 0
9705 1 2 0 31.634156550231737 16.965193539524048 -2.2036087105057653 0 0 0
6870 1 1 0 33.02069224770043 17.6895689666555 -1.6454782057991546 0 0 0
9655 1 2 0 36.64508082245133 12.004575667560774 -2.2251707129232154 0 0 0
6868 1 1 0 35.44778998080336 12.983199720004365 -1.644694863122504 0 0 0
9710 1 2 0 35.655910100793214 14.507794870775859 -2.2324860787821548 0 0 0
6869 1 1 0 35.66584904157973 16.048914802816928 -1.6451633414062794 0 0 0
9712 1 2 0 37.04925953923751 16.742556892321673 -2.2220151214538326 0 0 0
9650 1 2 0 39.72385226434302 16.309753174259857 -2.2279550446303307 0 0 0
6875 1 1 0 38.50646194720322 17.2608701434575 -1.644835370791178 0 0 0
6827 1 1 0 40.73053542068567 12.40755617193977 -1.6446622920690024 0 0 0
9643 1 2 0 40.935700108567424 13.938563987261404 -2.2225840931645293 0 0 0
6830 1 1 0 41.0286213240372 15.481313484302412 -1.6451587526534595 0 0 0
9649 1 2 0 42.413735636981414 16.16845630279841 -2.2264094770641303 0 0 0
6831 1 1 0 43.8216261093451 16.80847204056008 -1.6450167527053594 0 0 0
9647 1 2 0 45.089161446232524 15.925624160809912 -2.2256897391277035 0 0 0
13227 1 2 0 40.72888729949483 12.404683073923286 -4.955862386613203e-08 0 0 0
13230 1 2 0 41.03674730076546 15.493316787188185 -2.3444620770420005e-07 0 0 0
6828 1 1 0 45.956601663576166 11.908974743537911 -1.6450551902646622 0 0 0
6829 1 1 0 46.3216134741051 14.992002731134203 -1.645231743000697 0 0 0
9645 1 2 0 46.08059421869373 13.457657867570816 -2.2162336519038557 0 0 0
9648 1 2 0 47.74899119727187 15.607153122270262 -2.217961492634599 0 0 0
9666 1 2 0 50.43775576975914 15.512869779101454 -2.2222926779445307 0 0 0
6841 1 1 0 49.12426136311353 16.331211912296336 -1.6451737072834718 0 0 0
13241 1 2 0 49.11832518351709 16.329434137681847 -5.568092633618804e-08 0 0 0
9664 1 2 0 51.41637235055487 13.047608980185824 -2.2170040808280196 0 0 0
6840 1 1 0 51.67243834567161 14.578656294194374 -1.6451700788064607 0 0 0
9667 1 2 0 53.10999378129316 15.178964503018365 -2.214188393510842 0 0 0
9677 1 2 0 56.79099973377128 12.61312116442121 -2.217618198851372 0 0 0
9679 1 2 0 55.818124751445445 15.07765157344041 -2.2181492334273654 0 0 0
6849 1 1 0 54.496312730886316 15.890987935570825 -1.6452411517415872 0 0 0
13249 1 2 0 54.487590283987664 15.883900208045713 -1.4853764234285017e-07 0 0 0
9681 1 2 0 54.59280928324828 17.44028320169328 -2.2165588597451715 0 0 0
9729 1 2 0 62.246683785187784 12.176699715644634 -2.2161416735052395 0 0 0
6848 1 1 0 57.05673866025599 14.141740857768026 -1.6451401694494645 0 0 0
9680 1 2 0 58.51134536645526 14.70596768084545 -2.2113457902082483 0 0 0
6880 1 1 0 59.90535971851875 15.409171193119606 -1.6451696592647773 0 0 0
9727 1 2 0 61.24859626216437 14.622378020189773 -2.213079385490998 0 0 0
9728 1 2 0 59.96858948566674 16.956863700360415 -2.2187789072499884 0 0 0
8212 1 1 0 67.9782682631487 13.197723507584454 -1.644982856943435 0 0 0
6882 1 1 0 62.50999525050769 13.707875078174547 -1.6452730155410777 0 0 0
8213 1 1 0 65.39313094926108 14.942548809445162 -1.6454938007003321 0 0 0
9731 1 2 0 63.96978482770004 14.279850912686248 -2.204138619930861 0 0 0
11746 1 2 0 66.7298619347611 14.136845262666885 -2.208998136837008 0 0 0
11748 1 2 0 65.51703664655395 16.489367030136165 -2.2175612231814434 0 0 0
13282 1 2 0 62.5232836213483 13.718856749109419 -9.359108994239031e-08 0 0 0
8218 1 1 0 73.49351800936468 12.584530058042692 -1.6449739162651968 0 0 0
11747 1 2 0 69.46872023877937 13.679034414419736 -2.212438418339727 0 0 0
8219 1 1 0 70.90021315967498 14.322586028507223 -1.643604672245538 0 0 0
11756 1 2 0 72.27727707414655 13.57671033470515 -2.2072291284118895 0 0 0
11758 1 2 0 70.95939994009122 15.877810061813818 -2.1895203303217134 0 0 0
14619 1 2 0 70.88822344778147 14.252933319391607 -4.449431146045727e-07 0 0 0
8271 1 1 0 71.26097617760023 17.404948204786074 -1.6432880077269303 0 0 0
14671 1 2 0 71.27897707719688 17.487100099752073 -3.798424743355595e-07 0 0 0
11757 1 2 0 75.03343209179332 12.92882618453743 -2.1920748501213954 0 0 0
11769 1 2 0 77.89287539283217 12.841813373953599 -2.1778210274895495 0 0 0
8226 1 1 0 79.18652672679357 11.909093376504314 -1.64517423444457 0 0 0
8227 1 1 0 76.48097487297666 13.5715847197983 -1.6456473552325175 0 0 0
11771 1 2 0 76.45085494049368 15.122067753769521 -2.217396824095187 0 0 0
8273 1 1 0 76.80435865081137 16.631008629687035 -1.644820168623574 0 0 0
11840 1 2 0 78.37342899459703 16.87852691634678 -2.1651187109492147 0 0 0
14626 1 2 0 79.22036211133197 11.956780315332438 -1.6809534189232932e-07 0 0 0
14673 1 2 0 76.78802701621852 16.700866430623126 -1.321506756004412e-07 0 0 0
11839 1 2 0 75.58546770551463 17.654515307129845 -2.195980008479173 0 0 0
11770 1 2 0 80.72743586458971 12.353489260005206 -2.1801724173915398 0 0 0
8237 1 1 0 82.24939576376968 12.860556976765485 -1.6426022579264672 0 0 0
11786 1 2 0 83.60871908749293 12.023879217678184 -2.1980251475772867 0 0 0
11788 1 2 0 82.47113271228768 14.425905123692816 -2.149839107420958 0 0 0
11842 1 2 0 81.25767876409402 16.794103410941226 -2.19160271465192 0 0 0
8275 1 1 0 82.63948969957828 15.997585912105354 -1.6429988733084941 0 0 0
11843 1 2 0 84.13265114105472 16.568607916081195 -2.1980172797257507 0 0 0
14637 1 2 0 82.23283717584351 12.748450853841085 -7.875284602802943e-08 0 0 0
8276 1 1 0 79.83411571023082 17.501761047543127 -1.6443633553891202 0 0 0
14676 1 2 0 79.88951266576986 17.457113057649195 -6.852644512314072e-07 0 0 0
11787 1 2 0 86.4980328062132 11.961861247245313 -2.1765627448397624 0 0 0
8242 1 1 0 88.05819769568812 12.247178307783882 -1.647411146454175 0 0 0
11796 1 2 0 88.41002233919097 13.734600360536659 -2.237555640482967 0 0 0
8277 1 1 0 88.31949170221452 15.259799246050758 -1.644396733021582 0 0 0
8278 1 1 0 85.68970845524414 16.89656639395964 -1.64231934731866 0 0 0
11845 1 2 0 86.85939967991844 15.842908660170698 -2.1876939289137924 0 0 0
11846 1 2 0 89.70416325923169 15.970516139169915 -2.2151502388502027 0 0 0
14642 1 2 0 88.05504219223705 12.147307931338052 -1.6404467872727406e-07 0 0 0
14677 1 2 0 88.33005811459871 15.324391236334659 -4.0235119092564645e-08 0 0 0
14678 1 2 0 85.61377056438505 16.862467131941298 -1.3889659714685076e-07 0 0 0
8253 1 1 0 95.370535938104 12.126832572829413 -1.6454376052014303 0 0 0
8264 1 1 0 93.96329808873926 15.027712805494197 -1.6484102237084417 0 0 0
11812 1 2 0 94.55575224207489 13.525864767798735 -2.165098112220204 0 0 0
11828 1 2 0 92.4397864157569 15.524306353070731 -2.1866215619031606 0 0 0
8279 1 1 0 91.17854577891126 16.49442514330747 -1.6446229606280878 0 0 0
11827 1 2 0 94.92522917701564 16.2697926345099 -2.2096581690580623 0 0 0
14664 1 2 0 93.93168757334084 14.967542933142562 -5.6494168251498194e-08 0 0 0
9081 1 2 0 96.97537728184332 11.973168908242544 -2.1497518326578056 0 0 0
6471 1 1 0 98.58854474263873 12.07431001158987 -1.6483775860454926 0 0 0
6472 1 1 0 98.93041209342803 15.15939227612758 -1.6195635540868092 0 0 0
9080 1 2 0 99.14514148185357 13.584692471542366 -2.1849874867252876 0 0 0
8265 1 1 0 96.3712247532415 16.835155921875927 -1.6298780620881101 0 0 0
9082 1 2 0 97.38870649782697 15.594185955954854 -2.0322465662575064 0 0 0
9078 1 2 0 99.78641324299363 16.47038172113105 -2.2042316463643203 0 0 0
12871 1 2 0 98.61532717788525 12.035764724650152 -1.385181876758558e-07 0 0 0
12872 1 2 0 99.21262626537224 15.072573730333339 -1.6948761842603217e-07 0 0 0
6470 1 1 0 100.878309193906 17.616862857905698 -1.6500632519872798 0 0 0
14665 1 2 0 96.28736258922687 17.020200137221014 -9.850152263759465e-08 0 0 0
6854 1 1 0 8.770610157080972 18.693485745570552 -1.6285120162187037 0 0 0
9690 1 2 0 7.291480866027436 19.178152662103443 -2.2084946658160787 0 0 0
9689 1 2 0 10.177948874107559 19.289683785603227 -2.2658569897610943 0 0 0
6855 1 1 0 11.71011329014343 19.337684193246115 -1.6186791900930408 0 0 0
6884 1 1 0 6.345583665294344 20.41790152543138 -1.6394493287172545 0 0 0
9734 1 2 0 7.179856950183374 21.719604591423 -2.1944542958613984 0 0 0
6901 1 1 0 11.481494310094726 22.276835887420365 -1.6205088167022803 0 0 0
9760 1 2 0 9.952287833051436 22.21949931547892 -2.254461025998545 0 0 0
13255 1 2 0 11.611287370569542 19.039462219018606 -1.478503158208566e-07 0 0 0
6902 1 1 0 8.461681954839042 22.59077322510613 -1.6454279304000279 0 0 0
9687 1 2 0 12.80781033907593 18.27576322677877 -2.2516270350634677 0 0 0
9688 1 2 0 15.509280494512733 18.421532586325245 -2.1842958018596677 0 0 0
6859 1 1 0 16.85762446763071 19.259855006183262 -1.6473180947982426 0 0 0
9691 1 2 0 12.261166179510413 20.85977666504921 -1.9683037777467869 0 0 0
9697 1 2 0 16.821388450321948 20.88965125355311 -2.1686087890322443 0 0 0
13307 1 2 0 16.65392493787555 22.371584845243085 -3.8742023339527176e-08 0 0 0
6907 1 1 0 16.461730219737227 22.479804224950165 -1.6340942028097942 0 0 0
9770 1 2 0 14.917793980832935 22.893825359928645 -2.1174716306393933 0 0 0
9761 1 2 0 12.376376459197207 23.518937910766315 -2.2431447682846906 0 0 0
9696 1 2 0 20.811276682675874 17.840826393564523 -2.157005760931189 0 0 0
9695 1 2 0 18.161198680149052 18.31180284147325 -2.160934769624864 0 0 0
6861 1 1 0 22.22744323367517 18.58174244477992 -1.6462228150139901 0 0 0
9700 1 2 0 22.328893075209994 20.183899231101982 -2.190859492775622 0 0 0
6909 1 1 0 22.708756649303655 21.732059959923443 -1.6385742504726903 0 0 0
13261 1 2 0 22.263410415066662 18.61954015088096 -4.45947215268366e-08 0 0 0
9773 1 2 0 21.820471881200458 23.045572964127253 -2.201273045567717 0 0 0
6865 1 1 0 27.64261889653208 18.127392566132407 -1.6451764053546247 0 0 0
9706 1 2 0 27.80381366809177 19.689879602746867 -2.194118694434376 0 0 0
9774 1 2 0 24.258209466248555 22.0628151792484 -2.128626176827756 0 0 0
9779 1 2 0 26.86916069153767 22.25380654226828 -2.2327504157751106 0 0 0
6913 1 1 0 28.044357414230532 21.240299969061518 -1.645535390741794 0 0 0
6914 1 1 0 25.522093668915932 23.014840888471145 -1.642821973661681 0 0 0
9713 1 2 0 33.09604937424421 19.244593366665047 -2.2167303441935053 0 0 0
9780 1 2 0 29.48174439549988 21.838398583839904 -2.21173133610473 0 0 0
9782 1 2 0 32.14783343826099 21.7841876977239 -2.204985873167684 0 0 0
6915 1 1 0 33.34198173428749 20.78204463630885 -1.6450737953532315 0 0 0
13315 1 2 0 33.352482412485934 20.766107656764525 -5.098908629567971e-08 0 0 0
6916 1 1 0 30.8273512712213 22.621046494147702 -1.647391187120538 0 0 0
9720 1 2 0 38.74939439881535 18.782104107366365 -2.227585300306333 0 0 0
6892 1 1 0 38.79660332726799 20.321557977260966 -1.644836447166715 0 0 0
9783 1 2 0 34.791972197778286 21.33886550458391 -2.2199278568925256 0 0 0
6922 1 1 0 36.19859184987907 21.989355946570292 -1.645168461833415 0 0 0
9747 1 2 0 37.47638902516896 21.121050186012493 -2.2290550503659037 0 0 0
9793 1 2 0 36.34486976412914 23.527969377940366 -2.2263711616321413 0 0 0
9651 1 2 0 43.96826849599759 18.347902466461974 -2.2214512915173645 0 0 0
6891 1 1 0 44.115016014158826 19.887280119199485 -1.6450079775305373 0 0 0
9746 1 2 0 40.171536423914816 21.02598435099809 -2.224919462306078 0 0 0
6893 1 1 0 41.58154640202534 21.657884080147948 -1.6451336523039302 0 0 0
9744 1 2 0 42.84959806612608 20.774737217744022 -2.2269254858883687 0 0 0
9745 1 2 0 45.52303987700655 20.525331680630558 -2.2257425583172172 0 0 0
13291 1 2 0 44.117404489523906 19.895395546859636 -5.243254233132153e-08 0 0 0
13293 1 2 0 41.58927168059223 21.650559507253465 -1.489093743883461e-07 0 0 0
9748 1 2 0 41.70826734086838 23.19575771843994 -2.2282837829362596 0 0 0
9668 1 2 0 49.21631153989897 17.87980659785159 -2.2178045776468616 0 0 0
9749 1 2 0 48.2049120375451 20.354657644837474 -2.2229091512335835 0 0 0
6894 1 1 0 49.43687978590079 19.415061948513628 -1.6451628678898262 0 0 0
9750 1 2 0 50.87378463107284 20.001523847757912 -2.218679404257256 0 0 0
6895 1 1 0 46.911654402042245 21.205936168006364 -1.6450984925655525 0 0 0
13294 1 2 0 49.439330180699805 19.42289135511925 -1.3167002852169732e-07 0 0 0
13295 1 2 0 46.913443727963404 21.20044313938012 -8.547241504785983e-08 0 0 0
9751 1 2 0 46.99591004071593 22.75128155592339 -2.221094559401581 0 0 0
9757 1 2 0 53.57527143223297 19.9103011979969 -2.217070775282726 0 0 0
6900 1 1 0 52.24977930250345 20.721073613818344 -1.645205568267592 0 0 0
9759 1 2 0 52.28795338812888 22.27094494571157 -2.2188827033474814 0 0 0
6899 1 1 0 54.81846290382287 18.976317609256416 -1.6452254173735477 0 0 0
9758 1 2 0 56.26556004096027 19.552939262048668 -2.2127594392167853 0 0 0
13300 1 2 0 52.25176443295115 20.71677630220037 -2.1018268546681978e-07 0 0 0
6927 1 1 0 57.659905054333215 20.25085857307185 -1.645340739179646 0 0 0
6928 1 1 0 60.22751489981495 18.48470074165009 -1.6450889038234429 0 0 0
9800 1 2 0 58.992215356712784 19.438977797495486 -2.2117085481877146 0 0 0
9802 1 2 0 61.706642651618814 18.979660971306778 -2.2091375707766083 0 0 0
9801 1 2 0 57.71150234919855 21.80343329463017 -2.215165436294075 0 0 0
13328 1 2 0 60.22872547593168 18.508378950004396 -4.605836955935738e-08 0 0 0
6947 1 1 0 57.8927829484201 23.346382512243196 -1.6452575705256458 0 0 0
13347 1 2 0 57.88611306318299 23.359167210275277 -5.089688019529393e-08 0 0 0
8269 1 1 0 65.75152848984303 18.023785772731426 -1.6453352791355813 0 0 0
8270 1 1 0 63.100368124649755 19.683474516686328 -1.645035300628039 0 0 0
11833 1 2 0 64.47226802426317 18.930160141814586 -2.2071206168850375 0 0 0
11834 1 2 0 67.22475511684935 18.572427701990915 -2.1960191798863438 0 0 0
11835 1 2 0 63.065193287311686 21.23051731427897 -2.2184952612128765 0 0 0
14670 1 2 0 63.11627697644319 19.662444723726864 -1.208078361056245e-07 0 0 0
8298 1 1 0 63.30377700803935 22.75921402459649 -1.6449685010878834 0 0 0
11875 1 2 0 64.7980533016897 23.188444157720443 -2.2140427551624806 0 0 0
11876 1 2 0 67.57035786263215 23.10798640534784 -2.2137190430810443 0 0 0
11837 1 2 0 72.7715222997153 17.816712181873182 -2.2108877830006364 0 0 0
8272 1 1 0 68.67620756483056 19.183791051509818 -1.6458812624399883 0 0 0
11836 1 2 0 70.0038187474571 18.346678470413917 -2.205818467637269 0 0 0
11838 1 2 0 68.8056939482346 20.73190540249996 -2.2180293093971453 0 0 0
8299 1 1 0 68.90142012454615 22.281381443926712 -1.6452372887922007 0 0 0
14672 1 2 0 68.6764200530258 19.165739429883804 -5.7370479418051934e-08 0 0 0
11879 1 2 0 73.06176651719551 22.543773999284358 -2.2026152203781435 0 0 0
11877 1 2 0 70.33265408936546 22.934045383582763 -2.1878547530795776 0 0 0
8302 1 1 0 71.80367759293824 23.500490896496324 -1.6458634303039934 0 0 0
8274 1 1 0 74.20922415979423 18.446567361294267 -1.644374050824128 0 0 0
11841 1 2 0 74.16595848641683 20.016608137610856 -2.174695624564081 0 0 0
8301 1 1 0 74.30828998246403 21.578105757161914 -1.6434886916376972 0 0 0
11880 1 2 0 75.78651980050867 22.05165209219739 -2.2297534817513887 0 0 0
11882 1 2 0 78.50042209693405 21.446556960048074 -2.20471362476242 0 0 0
14674 1 2 0 74.23427212605395 18.382332484522493 -1.2496065199681914e-07 0 0 0
14704 1 2 0 77.29455808028 22.38498765137488 -5.896839976902961e-09 0 0 0
8304 1 1 0 77.28307569387518 22.440443438423184 -1.6448680782935066 0 0 0
11844 1 2 0 79.7335103671611 19.036502777073835 -2.239500283800113 0 0 0
8303 1 1 0 79.80045471103873 20.5664721960103 -1.6471172593640742 0 0 0
11883 1 2 0 81.27098968032374 21.06149380093272 -2.225920282256752 0 0 0
8305 1 1 0 82.41562767662107 22.090479260266765 -1.6411643572043277 0 0 0
11885 1 2 0 83.92652072571825 21.74263737327952 -2.2237618254588876 0 0 0
11886 1 2 0 81.9382159364627 23.557344254249568 -2.2061002871838125 0 0 0
11847 1 2 0 86.26744197561884 18.35827128327509 -2.177335684962478 0 0 0
8286 1 1 0 87.2848923371517 19.560371702898316 -1.6451924314398956 0 0 0
11856 1 2 0 88.85855548071495 19.506390100039205 -2.202165296631385 0 0 0
8285 1 1 0 90.44423722874059 19.478589449146693 -1.6452896803438517 0 0 0
11858 1 2 0 86.54463171878773 20.91652286239548 -2.2329335793408642 0 0 0
8306 1 1 0 85.46532947699795 22.012320896732007 -1.6464342604629252 0 0 0
14686 1 2 0 87.3329942259714 19.553942094304595 -1.3886769015075192e-07 0 0 0
14685 1 2 0 90.40203001282065 19.54804814220004 -3.557039612280073e-07 0 0 0
14706 1 2 0 85.42920237346473 21.996325599600944 -1.6403248150327116e-07 0 0 0
11887 1 2 0 86.05587647815516 23.441178883992098 -2.2162526149672965 0 0 0
11848 1 2 0 91.22931884799304 18.09235438370676 -2.147727706646893 0 0 0
11857 1 2 0 91.33451403035838 20.77278396258019 -2.218214314095901 0 0 0
8291 1 1 0 92.14135537457341 22.115959361572525 -1.6438766476828564 0 0 0
11865 1 2 0 93.7085166296076 22.268718970460245 -2.2009280125235433 0 0 0