LAMMPS data file via write_data, version 2 Aug 2023, timestep = 1733, units = metal

15312 atoms
2 atom types

6.827378338055357 196.15423527991072 xlo xhi
5.506350367524768 170.44521166744403 ylo yhi
-100 100 zlo zhi

Masses

1 28.085
2 15.999

Atoms # full

9540 1 2 0 11.567454992227809 6.709409857863683 -2.195075089457437 0 0 0
6768 1 1 0 8.503305317979615 10.035401289117647 -1.5869253138676462 0 0 0
9545 1 2 0 6.991996468380301 9.472281252026585 -1.8341874242233414 0 0 0
6765 1 1 0 10.931736788737995 8.195259044036897 -1.6417804745599902 0 0 0
9541 1 2 0 9.437218877146881 8.76117007044397 -2.1976301049312537 0 0 0
9534 1 2 0 11.769909469917078 9.541102792368351 -2.1365532468191346 0 0 0
9532 1 2 0 15.835871910939423 6.987033522096452 -2.227936133508172 0 0 0
6760 1 1 0 15.38005293789371 8.441961932836133 -1.5704040095415963 0 0 0
9530 1 2 0 14.295821081879955 9.481173882203047 -2.2846795171749537 0 0 0
9531 1 2 0 16.799163879492355 9.19800508544635 -1.7558256425645518 0 0 0
6761 1 1 0 13.070088151031456 10.423000440639331 -1.6431512295574442 0 0 0
6762 1 1 0 17.58145251339484 10.610921722032854 -1.5839665025016167 0 0 0
13142 1 2 0 17.85691930628048 10.991248427701924 -4.4803235188366466e-07 0 0 0
13141 1 2 0 13.211048215428725 10.509024160889837 -2.2360378479926593e-08 0 0 0
9554 1 2 0 20.03339090046373 7.472729768469862 -2.218641777697418 0 0 0
6774 1 1 0 20.357976829814334 5.920072165926138 -1.6465281869396335 0 0 0
6773 1 1 0 20.050190164913886 9.051101693830674 -1.643091579558493 0 0 0
9536 1 2 0 18.984245448924597 10.14079225683115 -2.3253558281247533 0 0 0
9555 1 2 0 21.420217545555502 9.861608873175522 -2.0665874206065 0 0 0
6780 1 1 0 23.44682016593209 5.605999857831564 -1.6441608233255351 0 1 0
13154 1 2 0 20.288427470946495 5.946228323216837 -1.2088967959553427e-07 0 0 0
13153 1 2 0 19.87998605609632 8.921661791559695 -2.0851091072735336e-08 0 0 0
6776 1 1 0 22.513015391728683 11.025607622002939 -1.6288139658435465 0 0 0
13156 1 2 0 22.63496862659085 11.228908271551878 -9.49469612004032e-08 0 0 0
9564 1 2 0 23.969483552779522 7.12264638007826 -2.184501960864057 0 0 0
9560 1 2 0 23.853869794499275 10.14832106614841 -2.167688814087604 0 0 0
6779 1 1 0 24.462630411699415 8.654509484973712 -1.6499088088566383 0 0 0
9565 1 2 0 26.008038614234845 8.774085498148036 -2.2233367098483816 0 0 0
6784 1 1 0 27.402160735546147 9.425004557341353 -1.6496931207879921 0 0 0
9570 1 2 0 28.55087160158378 8.39967740085552 -2.252993471257609 0 0 0
9573 1 2 0 27.620802314444134 10.966113591534535 -2.2337183118317903 0 0 0
13159 1 2 0 24.35152556233061 8.613845613914163 -2.1285672243427438e-07 0 0 0
13164 1 2 0 27.44001733872374 9.465327273646624 -5.252354142679841e-08 0 0 0
6783 1 1 0 29.767293869265956 7.476594176768504 -1.642818952789027 0 0 0
9572 1 2 0 29.733735237408155 5.944714191138194 -2.248286480156736 0 0 0
9571 1 2 0 31.18608123336384 8.105777160015512 -2.1822697952189856 0 0 0
6785 1 1 0 32.196048681805465 9.275857321838052 -1.6454500409660477 0 0 0
9575 1 2 0 33.65036701099526 8.902354929251853 -2.287816929833345 0 0 0
9574 1 2 0 31.76612722896912 10.723000519454871 -2.2843553451836445 0 0 0
13163 1 2 0 29.67905292877107 7.443880076632637 -2.1295702897037774e-07 0 0 0
13165 1 2 0 32.225870703420306 9.347329124514625 -1.9072200794334475e-07 0 0 0
6795 1 1 0 35.643114315273756 5.582481455770361 -1.647172679347426 0 0 0
9585 1 2 0 35.57958647307044 7.108722783311702 -2.244038531757437 0 0 0
9597 1 2 0 39.54838051029416 5.979595261084798 -2.244150434571052 0 0 0
6791 1 1 0 35.11615942143184 8.560014288714374 -1.6475795067728156 0 0 0
9584 1 2 0 36.142484472189324 9.67618160287017 -2.259636787635946 0 0 0
9587 1 2 0 38.671634026913225 10.347829701123537 -2.265504140143202 0 0 0
6798 1 1 0 40.12833202946477 9.929642942168392 -1.6470060150917742 0 0 0
6792 1 1 0 37.21214486853599 10.751498434633882 -1.647022477982138 0 0 0
13175 1 2 0 35.63252427153352 5.553442617660389 -2.240484407206261e-07 0 0 0
13171 1 2 0 35.092909945873885 8.567167145141203 -5.878301551912683e-07 0 0 0
13172 1 2 0 37.201130344151906 10.7521210501675 -1.237784282879168e-07 0 0 0
6799 1 1 0 40.744254599783005 6.943085865109475 -1.6479420446790285 0 0 0
9598 1 2 0 42.19089610167042 6.440573216725226 -2.2460277051281015 0 0 0
6806 1 1 0 43.68783106121083 6.114958541374975 -1.6475670207461783 0 0 0
9606 1 2 0 44.73793658460176 7.2358559648400345 -2.2420620356148055 0 0 0
9595 1 2 0 40.49520892894752 8.449672161210705 -2.2505684943995004 0 0 0
9605 1 2 0 45.4498465543728 9.804179386929084 -2.2408806067531035 0 0 0
13179 1 2 0 40.7495946099066 6.9376929182694 -9.865403970734775e-07 0 0 0
9596 1 2 0 41.208702366802626 11.004900934343416 -2.249481338130277 0 0 0
6805 1 1 0 45.13525447196886 11.30879098381237 -1.6475534451148732 0 0 0
13185 1 2 0 45.13142617268512 11.29265221480835 -4.834501648183556e-07 0 0 0
6809 1 1 0 48.78009900859911 7.463019670341062 -1.6477283407951613 0 0 0
9614 1 2 0 49.13173927038334 5.965986367827714 -2.2402836912823356 0 0 0
9607 1 2 0 47.30847119777992 7.897028407600811 -2.243752683442686 0 0 0
6804 1 1 0 45.832306222687166 8.314664291079605 -1.6478878332844498 0 0 0
6810 1 1 0 50.95718113522545 9.633045677980627 -1.647747878030588 0 0 0
9613 1 2 0 49.878072345273274 8.538268564859566 -2.240379901674213 0 0 0
9615 1 2 0 50.56847680713145 11.122541304150666 -2.2389769920002167 0 0 0
13189 1 2 0 48.788460236797334 7.45855335248781 -5.768437647109644e-08 0 0 0
6816 1 1 0 53.902352497384214 8.765767375685341 -1.647744565889412 0 0 0
9616 1 2 0 52.435824489380316 9.220038469762958 -2.2422378972333723 0 0 0
6820 1 1 0 54.623244396341335 5.774924799731162 -1.6476631470060368 0 0 0
9626 1 2 0 54.24537039195694 7.265915442104486 -2.2395810642112854 0 0 0
9625 1 2 0 55.01488345639532 9.826276871391187 -2.240295620001797 0 0 0
6817 1 1 0 56.092223909701815 10.92324313440345 -1.647776791297415 0 0 0
13196 1 2 0 53.903886692129234 8.759451670349025 -6.630217180790199e-08 0 0 0
13200 1 2 0 54.618009023168035 5.7770598263272435 -9.47379395905533e-07 0 0 0
9640 1 2 0 58.684738177623004 5.9287197041198825 -2.2418913680388717 0 0 0
6826 1 1 0 59.75086431523911 7.034607760543723 -1.6477358517617908 0 0 0
9642 1 2 0 61.2389258990837 6.655662818878421 -2.2427213915544844 0 0 0
6824 1 1 0 59.032162164111774 10.023231712485993 -1.6478134201095276 0 0 0
9638 1 2 0 59.33555957055616 8.515206249381311 -2.2391494762358044 0 0 0
9628 1 2 0 57.576167027128605 10.518747124788867 -2.2395600642566005 0 0 0
13206 1 2 0 59.74670669698482 7.032430087950238 -5.0244850928638586e-08 0 0 0
13204 1 2 0 59.0279803338658 10.020787952061589 -1.4402302647550482e-09 0 0 0
9639 1 2 0 60.18816434198008 11.03695435250827 -2.2407998985163897 0 0 0
8192 1 1 0 62.6864684862478 6.143705011941678 -1.6477399976378482 0 0 0
11708 1 2 0 63.86589779615757 7.126777835310855 -2.2426788460646088 0 0 0
8193 1 1 0 67.83812561385713 7.413313260216813 -1.6480060882251835 0 0 0
11709 1 2 0 66.4102394357741 7.983500121574806 -2.241260031893982 0 0 0
8190 1 1 0 64.8988093283829 8.263468943875013 -1.6477464443353038 0 0 0
11707 1 2 0 64.40231983138233 9.71380252913755 -2.2415419723935965 0 0 0
11713 1 2 0 68.00467921250883 5.890818758178349 -2.243118155151274 0 0 0
14573 1 2 0 67.83468890777536 7.427200458671992 -1.527878822429099e-07 0 0 0
8191 1 1 0 64.19098913965566 11.23284676103231 -1.6477446814376069 0 0 0
14571 1 2 0 64.17919636250947 11.245683770258655 -3.7733086286963095e-08 0 0 0
14570 1 2 0 64.89877895053509 8.249474386234482 -7.327500312906002e-07 0 0 0
11724 1 2 0 73.09673537589508 7.161197631422931 -2.2437225036259636 0 0 0
11712 1 2 0 69.09282671298327 8.302894256073952 -2.2417145889704337 0 0 0
8194 1 1 0 70.09605713275354 9.470037366344986 -1.647694171766812 0 0 0
11715 1 2 0 71.62775302124993 9.302555043456232 -2.23562258844565 0 0 0
8200 1 1 0 73.04261932192553 8.690408746247503 -1.6478606755399658 0 0 0
11714 1 2 0 69.51528358024292 10.88817258758658 -2.236716635229623 0 0 0
8204 1 1 0 73.63260189836117 5.730408569034458 -1.6472817194622846 0 0 0
14574 1 2 0 70.10681701044558 9.43872263630707 -7.672187487097301e-08 0 0 0
14584 1 2 0 73.6331761082353 5.697218714034869 -3.353739445692057e-07 0 0 0
11735 1 2 0 77.79039300856417 5.8900977290353485 -2.256358857038196 0 0 0
8207 1 1 0 78.97345839916333 6.862683470532203 -1.6476830063386219 0 0 0
11723 1 2 0 74.34810626426214 9.510442481826285 -2.2361959063624766 0 0 0
11726 1 2 0 76.9487941250213 10.324682213052549 -2.229523931232341 0 0 0
8206 1 1 0 78.43503268790201 9.88345748755927 -1.649138795887465 0 0 0
11733 1 2 0 78.75160132886835 8.380398353569394 -2.2468709924225716 0 0 0
8201 1 1 0 75.42812005353437 10.615051103471181 -1.6478223139037533 0 0 0
14587 1 2 0 78.95189646017073 6.898803865840204 -8.16273535010383e-07 0 0 0
14586 1 2 0 78.4341730176189 9.91530558926769 -7.77065353051626e-08 0 0 0
11731 1 2 0 75.15450563394496 5.573719604372912 -2.239828120849215 0 1 0
11736 1 2 0 80.39781881167605 6.262372625166749 -2.2187974450600594 0 0 0
8214 1 1 0 81.93699435130856 6.11250582071661 -1.6477128061581847 0 0 0
11744 1 2 0 82.76892158315272 7.414786181576865 -2.240654698454596 0 0 0
8212 1 1 0 83.99159006229209 8.349447211639076 -1.6498995069643174 0 0 0
11743 1 2 0 83.9655163166203 9.892549301150288 -2.223562283768894 0 0 0
11734 1 2 0 79.63437556189636 10.857706875097975 -2.242439052289578 0 0 0
14594 1 2 0 81.9642065059455 6.115287970081678 -7.303556212929842e-08 0 0 0
14592 1 2 0 83.96466398862225 8.364538576879115 -1.7217483828437682e-07 0 0 0
8217 1 1 0 86.86874836759765 7.794842729242029 -1.642794372862754 0 0 0
11745 1 2 0 85.36216328922825 7.680181166978376 -2.271492214270836 0 0 0
11752 1 2 0 87.6573602142125 6.4967258070528855 -2.273043656937797 0 0 0
11759 1 2 0 90.30471918198418 6.052484224716395 -2.135933896515128 0 0 0
11751 1 2 0 87.52347216763577 9.253395470486433 -2.0930589691792765 0 0 0
8218 1 1 0 89.03395513595413 9.768683999275325 -1.6400790753595906 0 0 0
11754 1 2 0 90.15315776924538 8.764831261809908 -2.286223818801716 0 0 0
14598 1 2 0 89.14914971267234 9.835734351376757 -3.012016144652867e-07 0 0 0
8221 1 1 0 88.82700579198628 5.522107115332106 -1.6431532087195568 0 1 0
11753 1 2 0 89.40789325379498 11.22250125125855 -2.2834601447910807 0 0 0
14597 1 2 0 86.84752029441893 7.6927892307871515 -4.271151429065954e-08 0 0 0
8227 1 1 0 90.95061928176673 7.484005755225431 -1.6434608362970284 0 0 0
11768 1 2 0 92.41688052769999 7.557001175246943 -2.314332140915063 0 0 0
8229 1 1 0 93.9034134170561 7.734607327784583 -1.654120549608002 0 0 0
11772 1 2 0 94.55371902633377 6.325585232974713 -2.251276749910025 0 0 0
11769 1 2 0 94.29550184207142 9.242886917245446 -2.229551990400316 0 0 0
8228 1 1 0 94.9622225076466 10.634611896621314 -1.638553848718391 0 0 0
14608 1 2 0 94.77832526597689 10.653435466035852 -7.074510555889384e-08 0 0 0
8233 1 1 0 97.54074182236229 6.554904305295691 -1.6355658160924167 0 0 0
8951 1 2 0 99.05139968926393 6.577324871681498 -2.2634247472592435 0 0 0
8232 1 1 0 97.47819541459518 9.377870689641776 -1.6404555944238608 0 0 0
8942 1 2 0 98.95894828160898 9.48927507237375 -2.323152983311856 0 0 0
11776 1 2 0 96.79297658282715 7.94376077076623 -2.1539303816251096 0 0 0
6385 1 1 0 100.33831124980681 10.083955474573925 -1.6514501318097197 0 0 0
11771 1 2 0 96.54539352106572 10.635651361299342 -2.139715080920357 0 0 0
14613 1 2 0 97.61216969276937 6.601574447695685 -4.3023578023314297e-07 0 0 0
14612 1 2 0 97.59032796814039 9.426124954293579 -7.289507679125292e-07 0 0 0
12765 1 2 0 100.35091315715106 10.09386296395132 -1.833920683761832e-07 0 0 0
6390 1 1 0 100.20253379721515 5.566362606361731 -1.6499125560287269 0 0 0
9546 1 2 0 8.378164648637885 11.631070218764478 -2.177772911687927 0 0 0
6829 1 1 0 7.189723814062732 12.733843161856765 -1.6513308869038867 1 0 0
9645 1 2 0 7.284563203495396 14.319037930305402 -2.205006812957833 0 0 0
9539 1 2 0 12.047136745793797 14.730464019373445 -2.1657922506054095 0 0 0
6828 1 1 0 7.701403689165727 15.854156439890172 -1.6467706275838383 0 0 0
6827 1 1 0 10.952107527779331 15.969111949692012 -1.6438258922734075 0 0 0
9643 1 2 0 9.331188700088306 15.887797465943683 -2.1112006865856547 0 0 0
13209 1 2 0 7.269559965136153 12.770499692283675 -4.5651385854208004e-07 1 0 0
13207 1 2 0 11.048494692619677 15.879436177718182 -2.3446004392155156e-07 0 0 0
9533 1 2 0 12.894624972061479 11.996988500209532 -2.1933304686407165 0 0 0
9535 1 2 0 16.74325219974893 11.872151319479075 -2.2549546580524336 0 0 0
6764 1 1 0 13.20143477575055 13.572054927918426 -1.6503180580695804 0 0 0
9537 1 2 0 14.79576874103182 13.848705441044274 -2.163810451361461 0 0 0
6763 1 1 0 16.329190592224574 13.379960378450411 -1.649977553968839 0 0 0
9538 1 2 0 17.568692479580545 14.333450633860902 -2.2045637085454968 0 0 0
13144 1 2 0 13.169519261023433 13.584643292351412 -1.2974015874280365e-07 0 0 0
13143 1 2 0 16.306344689028343 13.381647379092506 -2.0134694211945678e-07 0 0 0
9559 1 2 0 22.205964719991517 12.612439984135861 -2.1864475900182265 0 0 0
9561 1 2 0 20.319797595782404 14.769311736792003 -2.1556844988630384 0 0 0
6777 1 1 0 21.84873954111285 14.20743469260491 -1.6528273500103132 0 0 0
6778 1 1 0 18.792257645615553 15.318288272486141 -1.6458352046678615 0 0 0
9562 1 2 0 23.012779296395273 15.325268127770029 -2.1844739261866297 0 0 0
13157 1 2 0 21.860630776025747 14.178638840655518 -1.0183554386182262e-07 0 0 0
9563 1 2 0 18.23195203988611 16.802491608206708 -2.1782507917775225 0 0 0
6787 1 1 0 28.299518795767092 12.358156417326136 -1.645502085106747 0 0 0
9578 1 2 0 27.566254854807077 13.699238433179147 -2.262062313545055 0 0 0
6833 1 1 0 24.341197698121743 16.21870091850321 -1.635856260864734 0 0 0
9651 1 2 0 25.682563793974587 15.391208226379243 -2.130651537571416 0 0 0
6832 1 1 0 27.24624466260238 15.1989036711113 -1.6436065958327624 0 0 0
9652 1 2 0 28.256729066815023 16.38569729980452 -2.243897351533886 0 0 0
13213 1 2 0 24.168513320824573 16.313705780547885 -9.392155204720899e-08 0 0 0
13167 1 2 0 28.225314930100755 12.345013029909543 -5.233976219952911e-07 0 0 0
9576 1 2 0 29.840118809843855 12.51383887029359 -2.19823757441786 0 0 0
6786 1 1 0 31.34084190961557 12.172965503293636 -1.6462784075116392 0 0 0
9577 1 2 0 32.34420900561442 13.303618368240574 -2.277604884594609 0 0 0
6794 1 1 0 33.436838675325916 14.352991611989188 -1.6468639416510686 0 0 0
9590 1 2 0 33.10264309763794 15.839577077256962 -2.234234492437635 0 0 0
13166 1 2 0 31.39685100057395 12.16258252768251 -2.768890960711361e-07 0 0 0
6838 1 1 0 32.38730631214108 17.19101789709164 -1.646722077799354 0 0 0
9660 1 2 0 30.855844645160204 17.153700374651596 -2.2546515254444137 0 0 0
13218 1 2 0 32.34931871589863 17.245960840031138 -2.1682256203013328e-07 0 0 0
9586 1 2 0 36.841954616870154 12.223367850756194 -2.258150722217792 0 0 0
9588 1 2 0 34.90330712932255 13.96780965105831 -2.261800997432133 0 0 0
6793 1 1 0 36.3919897032191 13.674516411744184 -1.6474862439987223 0 0 0
9589 1 2 0 37.4175935359301 14.799261599558362 -2.2559238617000745 0 0 0
6803 1 1 0 38.411825649727085 15.956618827652601 -1.6475531263694627 0 0 0
9602 1 2 0 39.91612669332987 15.635311622518064 -2.237574189797962 0 0 0
13173 1 2 0 36.38960494780608 13.68188306550138 -2.735182224533147e-07 0 0 0
6801 1 1 0 42.20125937009244 12.16484570991942 -1.6475220688043153 0 0 0
9601 1 2 0 43.69403773420794 11.826812186290796 -2.246955365100116 0 0 0
9600 1 2 0 41.692055604933735 13.613383593263645 -2.2427830327865848 0 0 0
6802 1 1 0 41.36372123477265 15.114794670547152 -1.6477257245479109 0 0 0
9603 1 2 0 42.51132456786799 16.1262845726625 -2.2472794502242714 0 0 0
13182 1 2 0 41.359892313721886 15.101515313800338 -3.688241690673784e-07 0 0 0
6845 1 1 0 43.53118962791957 17.26768441777519 -1.6474366669603688 0 0 0
9669 1 2 0 45.03004409113123 16.926032105982102 -2.239465707434713 0 0 0
13225 1 2 0 43.53299091352078 17.272788794813497 -9.711941077137024e-08 0 0 0
13181 1 2 0 42.20377333332003 12.173188005093207 -7.220744000921454e-08 0 0 0
9608 1 2 0 46.264072292754754 12.344347058273323 -2.2432607774247573 0 0 0
6811 1 1 0 50.23489492579351 12.625297859236243 -1.6476124783571926 0 0 0
9619 1 2 0 46.839402553004334 14.95115051597239 -2.240435729170777 0 0 0
6812 1 1 0 47.2915998485583 13.481367349380147 -1.647544514757246 0 0 0
9617 1 2 0 48.77908757186285 13.108374920833697 -2.24367576512144 0 0 0
9618 1 2 0 51.35247729371653 13.678088291547882 -2.240634476114802 0 0 0
6844 1 1 0 46.49244113372491 16.45034262827221 -1.6476419643617517 0 0 0
13191 1 2 0 50.232788262230244 12.614323888711532 -4.6853442849308117e-07 0 0 0
9629 1 2 0 53.89334618085121 14.397666510977334 -2.238652711933288 0 0 0
6818 1 1 0 52.406952060218494 14.79508838199818 -1.647691432043849 0 0 0
9630 1 2 0 51.97370816567536 16.275363500525565 -2.235380209522484 0 0 0
9627 1 2 0 55.690738456003956 12.410932842405247 -2.2369378108166513 0 0 0
6819 1 1 0 55.35416459047622 13.914896630609643 -1.6477464731973641 0 0 0
9631 1 2 0 56.47988868929895 14.96220782033369 -2.2398272618002286 0 0 0
13198 1 2 0 52.406557749252265 14.800905593725894 -1.8940880299004866e-07 0 0 0
6852 1 1 0 61.25631626606162 12.143385761602032 -1.647856977938337 0 0 0
9682 1 2 0 60.81950614162001 13.618049410710594 -2.238611102906807 0 0 0
6853 1 1 0 60.50940093919282 15.124246707332073 -1.6476717746282197 0 0 0
6851 1 1 0 57.57196186168226 16.044783208362574 -1.647749479371498 0 0 0
9680 1 2 0 59.051832916005175 15.619242267752394 -2.2370908530205655 0 0 0
9684 1 2 0 61.66508319930691 16.13595855173237 -2.2432723068384623 0 0 0
9683 1 2 0 62.75552663931465 11.790811372780206 -2.238473166689286 0 0 0
11710 1 2 0 65.43253830021963 12.141226792868256 -2.2389283936096662 0 0 0
8196 1 1 0 66.47257534131748 13.276487956046056 -1.648085623280183 0 0 0
11716 1 2 0 67.99744069608717 13.030647474269035 -2.2359660188614625 0 0 0
11718 1 2 0 65.9271908803197 14.709167980163771 -2.2411331467618303 0 0 0
8235 1 1 0 65.69388021206582 16.222939865448755 -1.6472829001116385 0 0 0
14615 1 2 0 65.67825379537933 16.246588086081733 -4.585834420005998e-07 0 0 0
8236 1 1 0 62.77741359465241 17.19530240481566 -1.6477895144706043 0 0 0
11779 1 2 0 64.25998783510238 16.78073200387749 -2.2403172580159056 0 0 0
11780 1 2 0 66.93734894477511 17.118770591943793 -2.2433851520733863 0 0 0
14616 1 2 0 62.772397956897436 17.18764429547382 -1.2923656596672989e-06 0 0 0
8195 1 1 0 69.4172392614716 12.418951588466589 -1.6478022318825916 0 0 0
11717 1 2 0 70.7469210034774 13.205943050089521 -2.229495752031301 0 0 0
8203 1 1 0 71.7829855970195 14.35641149934861 -1.648051898116564 0 0 0
11727 1 2 0 73.32648222968702 14.163845713298684 -2.2286702200137376 0 0 0
11729 1 2 0 71.1352864100923 15.751866660585895 -2.230297623631991 0 0 0
14575 1 2 0 69.40401669366355 12.4549912126898 -8.330122616396943e-08 0 0 0
14583 1 2 0 71.81076468453736 14.34381417582837 -3.766780960227233e-08 0 0 0
8237 1 1 0 70.93770675211354 17.274645386421877 -1.6474207304767277 0 0 0
11725 1 2 0 74.91248765545667 12.057506812583645 -2.2412277072370728 0 0 0
8202 1 1 0 74.77541691382173 13.586196721481697 -1.6485618970109963 0 0 0
11728 1 2 0 76.13489976452422 14.34871015515478 -2.213653074966167 0 0 0
8211 1 1 0 77.13446999103773 15.54630686052729 -1.6475541275255385 0 0 0
11740 1 2 0 78.69921514376334 15.541641973509996 -2.222318631026066 0 0 0
11742 1 2 0 76.36339887807718 16.883164947281102 -2.2178415573336245 0 0 0
8209 1 1 0 80.69958348582749 11.973007773273126 -1.6447388681941566 0 0 0
11739 1 2 0 82.23096855664167 11.816319725876175 -2.2450678150684253 0 0 0
8213 1 1 0 83.7210502522365 11.42014830905742 -1.6479857866501562 0 0 0
8210 1 1 0 80.15965016812004 14.965941251918903 -1.6459053965240595 0 0 0
11738 1 2 0 80.15840145414215 13.41818343826437 -2.1991608802839107 0 0 0
11741 1 2 0 81.57566792179922 15.651961248779804 -2.205381868341944 0 0 0
14593 1 2 0 83.7437283687879 11.464846973414975 -7.954889685903174e-08 0 0 0
14590 1 2 0 80.15626266512446 15.066478138699742 -8.240580558438186e-08 0 0 0
8244 1 1 0 82.64849581287436 16.808718377659673 -1.6466538913786422 0 0 0
11790 1 2 0 84.22125738720958 16.871645307353052 -2.1942853765170924 0 0 0
14624 1 2 0 82.68602747262862 16.733600653171138 -7.909798804423174e-09 0 0 0
11746 1 2 0 84.88898306374558 12.447931053626679 -2.2360268876598033 0 0 0
8219 1 1 0 89.0715616201441 12.70439105844884 -1.6506552870763285 0 0 0
8220 1 1 0 86.07500806765108 13.457052863013496 -1.6467534055735928 0 0 0
11757 1 2 0 85.93094333497265 14.984220272407132 -2.246204442634343 0 0 0
11755 1 2 0 87.55576119689442 13.011943481850368 -2.2156298252269293 0 0 0
11756 1 2 0 90.2547999967611 13.667868125869973 -2.2749451460987458 0 0 0
8243 1 1 0 85.76326296832977 16.515935917500574 -1.6481882428224897 0 0 0
14599 1 2 0 89.07306093667964 12.773485060622164 -4.4159260677513764e-08 0 0 0
14623 1 2 0 85.77503690118205 16.54766907018943 -7.176201399195179e-08 0 0 0
11770 1 2 0 94.35900259219495 12.031946476277918 -2.2646182812510935 0 0 0
8231 1 1 0 91.49068600317013 14.561182713975352 -1.6339602028521638 0 0 0
11773 1 2 0 92.98024477334445 14.211745472149468 -2.258545341633273 0 0 0
8230 1 1 0 94.38718462200758 13.575375503209743 -1.6524757541979749 0 0 0
11774 1 2 0 95.749442148109 14.390370560842051 -2.1598821084653883 0 0 0
11775 1 2 0 91.12936459389007 16.08863461248199 -2.090137014125057 0 0 0
14611 1 2 0 91.52343940414433 14.36681165114723 -2.1105578642043047e-07 0 0 0
11793 1 2 0 95.49839731501616 17.004649488641203 -2.180530176651362 0 0 0
8940 1 2 0 100.33714154044283 11.652749194830728 -2.1712692909068987 0 0 0
6384 1 1 0 101.29724672723277 12.892869023843843 -1.639931059615829 0 0 0
8941 1 2 0 100.57565558007079 14.29296723881152 -2.212332495950534 0 0 0
8245 1 1 0 96.51979603455354 15.785783777578093 -1.6437354508317086 0 0 0
9056 1 2 0 98.12757860480566 15.774486847443216 -2.1891767254509493 0 0 0
6453 1 1 0 99.73334271490626 15.649181935538756 -1.6487236465186204 0 0 0
9054 1 2 0 100.62494014192505 16.98070623965931 -2.1494415599330474 0 0 0
12833 1 2 0 99.68586269982629 15.581228507174455 -1.484820778530377e-07 0 0 0
9644 1 2 0 11.358815577531868 17.497474757824484 -2.1981874097423226 0 0 0
6855 1 1 0 11.703663895147526 19.048041603801128 -1.6493089785987125 0 0 0
9755 1 2 0 7.959739173915351 21.700539101856787 -2.1746956015746455 0 0 0
9688 1 2 0 10.58306870373778 20.256943973834222 -2.143660825762646 0 0 0
6898 1 1 0 9.573762776393224 21.57772508899417 -1.6475552628016867 0 0 0
13235 1 2 0 11.65733743312037 19.0550175216519 -3.496114740074947e-07 0 0 0
13278 1 2 0 9.548140770953077 21.458749387846893 -2.3837859104412566e-08 0 0 0
9754 1 2 0 10.1838392349406 23.06650242650807 -2.14686442251952 0 0 0
9687 1 2 0 13.310053672314623 19.18919897792419 -2.158928716272736 0 0 0
9685 1 2 0 16.260881551958544 18.893987521473125 -2.172151928779139 0 0 0
6856 1 1 0 14.838814330474978 19.68925706754471 -1.644036632983353 0 0 0
6854 1 1 0 17.798106333444167 18.332340484463234 -1.6504805073225726 0 0 0
9689 1 2 0 14.856360361172387 21.272428020611375 -2.1821958069838674 0 0 0
9756 1 2 0 12.7452920164097 23.1675169616037 -2.2172424509474062 0 0 0
6899 1 1 0 14.230331289970293 22.717498191743793 -1.6472297615231317 0 0 0
13279 1 2 0 14.174929760617795 22.66183979161285 -5.861286672543264e-07 0 0 0
9686 1 2 0 19.156087107590192 19.149891728646725 -2.2070118887981245 0 0 0
6861 1 1 0 20.12309987886702 20.37579213786919 -1.6286429062147942 0 0 0
9698 1 2 0 19.238044956138406 21.63863498015622 -2.157200804063518 0 0 0
9697 1 2 0 21.651134481839794 20.730704488937594 -2.205859986836415 0 0 0
6862 1 1 0 23.07791217376854 21.412377153197713 -1.6504997742163239 0 0 0
13241 1 2 0 20.25961449347757 20.17322173939983 -1.8207352523864348e-07 0 0 0
13242 1 2 0 23.02383241877249 21.47804905949807 -1.7411037916923238e-07 0 0 0
6907 1 1 0 19.218717522641157 23.177443606212236 -1.6424066066616536 0 0 0
9653 1 2 0 24.65635507308924 17.777492226025416 -2.195422108944987 0 0 0
6860 1 1 0 25.241500540974236 19.258253270457782 -1.6490704052541119 0 0 0
9696 1 2 0 26.692221384257806 19.908031116656694 -2.1931941010988094 0 0 0
9695 1 2 0 24.172755235548745 20.34704340789019 -2.250083388694595 0 0 0
6882 1 1 0 28.219458405560832 20.322153740724225 -1.6386682460155695 0 0 0
9730 1 2 0 29.00513648742265 21.7075778431241 -2.2010415799536647 0 0 0
13262 1 2 0 28.13869402234868 20.482397405698414 -8.933608011302174e-08 0 0 0
9699 1 2 0 23.629235205358523 22.90298781345791 -2.200447630536742 0 0 0
9662 1 2 0 29.123026985236237 19.037825741798574 -2.157194269666286 0 0 0
6839 1 1 0 29.35861944721078 17.484717407611665 -1.6467337766813392 0 0 0
9661 1 2 0 33.29830376299578 18.425646794980565 -2.2412103961463266 0 0 0
6864 1 1 0 34.36924846423911 19.53178538150795 -1.6481265863642458 0 0 0
9702 1 2 0 33.819971124346424 20.967953525935787 -2.2378674366414466 0 0 0
13244 1 2 0 34.404165849778764 19.52430926766108 -4.5057286674605557e-08 0 0 0
13219 1 2 0 29.32080434996412 17.415699445385606 -1.2768509028900693e-07 0 0 0
6883 1 1 0 33.23940809285046 22.39726447329939 -1.6476820343314407 0 0 0
6884 1 1 0 30.109557499703474 22.863930094151794 -1.6490050326312065 0 0 0
9731 1 2 0 31.675953599693386 22.607673730744267 -2.1957257181300704 0 0 0
13263 1 2 0 33.21990263218009 22.413112544967674 -4.3955095109865673e-07 0 0 0
9604 1 2 0 37.871829310720635 17.39665701053411 -2.2365508930893863 0 0 0
9700 1 2 0 35.89315475599012 19.226240795154894 -2.2267179974137243 0 0 0
6863 1 1 0 37.40312479329316 18.865911678361282 -1.648114328835214 0 0 0
9701 1 2 0 38.49117447136665 19.958997065728486 -2.2367087854153684 0 0 0
6869 1 1 0 39.62971841871601 21.000448723730297 -1.6475860289602453 0 0 0
13249 1 2 0 39.63250841297483 20.977225642815366 -2.604735474472282e-07 0 0 0
9710 1 2 0 39.26620574160144 22.498207584653493 -2.2301732662253797 0 0 0
9671 1 2 0 43.0324039014428 18.719498991884382 -2.239676807632387 0 0 0
9708 1 2 0 41.12025415217845 20.584770585843074 -2.2314155203778863 0 0 0
6868 1 1 0 42.61860457040578 20.200790396921263 -1.6478063990999974 0 0 0
9709 1 2 0 43.747452248059695 21.246114780446298 -2.239703107729221 0 0 0
13248 1 2 0 42.6102413356794 20.215465080943986 -4.088159135394886e-07 0 0 0
6891 1 1 0 44.791031365385955 22.379130027894124 -1.6475043898813637 0 0 0
13271 1 2 0 44.82560837496449 22.3640855959025 -7.402298599782321e-07 0 0 0
9670 1 2 0 47.62065560833741 17.49159221103751 -2.2407249462876715 0 0 0
6850 1 1 0 48.65812924543713 18.625169893978047 -1.6477320792456691 0 0 0
9677 1 2 0 50.159202110423756 18.26347474552665 -2.234344497200204 0 0 0
9679 1 2 0 48.16260013738219 20.087911983999593 -2.2304126962683224 0 0 0
6890 1 1 0 47.79594644061696 21.590701460039128 -1.6479764325359585 0 0 0
9742 1 2 0 46.31496136849101 22.065177101340986 -2.2279271988639517 0 0 0
9743 1 2 0 48.97097705184568 22.59757363133429 -2.2271496451240664 0 0 0
6849 1 1 0 51.62502331300085 17.7788973298734 -1.6477670930319819 0 0 0
9678 1 2 0 52.7610778821935 18.818678139610576 -2.23601088073122 0 0 0
6876 1 1 0 53.85744897505226 19.90041339912345 -1.6477235531103855 0 0 0
9722 1 2 0 53.45428138350753 21.388818266081078 -2.236174277985969 0 0 0
9721 1 2 0 55.34251817324162 19.479135891454952 -2.232923151481709 0 0 0
6877 1 1 0 56.82088097567281 19.035458207876232 -1.647756112084709 0 0 0
13257 1 2 0 56.823481403072535 19.026920522089924 -3.8335122527265683e-07 0 0 0
6896 1 1 0 53.07789998894118 22.88603061410969 -1.6480509955677929 0 0 0
13276 1 2 0 53.07492328587005 22.884876915047702 -9.118194601800841e-08 0 0 0
9681 1 2 0 57.18802165931478 17.537648341895075 -2.2367481411749672 0 0 0
11781 1 2 0 62.40027042476839 18.68548873429101 -2.2382326484635477 0 0 0
9723 1 2 0 57.9321400901846 20.103775712292283 -2.2362745921917604 0 0 0
6917 1 1 0 59.098237557022316 21.111855372808648 -1.6477368521035871 0 0 0
9784 1 2 0 60.55168555608928 20.60284319728209 -2.236540501014769 0 0 0
8250 1 1 0 62.03071537465235 20.177709327724507 -1.6475288500401668 0 0 0
13297 1 2 0 59.08803616231818 21.112089335193048 -8.567447813927207e-07 0 0 0
9782 1 2 0 58.83403553829359 22.62866867544758 -2.2376897462301613 0 0 0
8238 1 1 0 68.0087622082621 18.216246317478316 -1.648124788870303 0 0 0
11784 1 2 0 67.47749582484266 19.654344649833966 -2.2418371887935162 0 0 0
11800 1 2 0 63.14468940980166 21.235143517555805 -2.243931875361495 0 0 0
11817 1 2 0 65.76738205994614 21.731291313363915 -2.240558850096984 0 0 0
8262 1 1 0 67.19735924164021 21.16039034544594 -1.6470632358625312 0 0 0
14618 1 2 0 68.0293905584679 18.217892949635743 -9.455032468911274e-08 0 0 0
14642 1 2 0 67.17112402263058 21.178347829530157 -5.9497699416348267e-08 0 0 0
8263 1 1 0 64.31009946107442 22.236720934264575 -1.6478996649202553 0 0 0
14643 1 2 0 64.31362977328482 22.225913601394396 -2.889994168911891e-07 0 0 0
11782 1 2 0 69.51688111595432 17.88094693021653 -2.2398198626858083 0 0 0
11783 1 2 0 72.2498286083976 18.069433649705296 -2.2432203639489154 0 0 0
8252 1 1 0 73.25558737530858 19.225472917166517 -1.6471266899208818 0 0 0
11803 1 2 0 72.56585550674936 20.60200713642585 -2.2191921999317894 0 0 0
14632 1 2 0 73.31654338106352 19.209378572961505 -6.350034809872445e-08 0 0 0
11818 1 2 0 68.44164414961553 22.048917040218786 -2.244230369448854 0 0 0
8279 1 1 0 72.39642622616388 22.129896726096003 -1.646897378388391 0 0 0
8280 1 1 0 69.50583057770321 23.14621648774041 -1.6480589275900448 0 0 0
11841 1 2 0 71.00682258611882 22.791070920582747 -2.2465820841139603 0 0 0
11801 1 2 0 74.78407660037335 19.02026504457134 -2.2490430102314036 0 0 0
8251 1 1 0 76.20034357172895 18.411009904300606 -1.6465832615010254 0 0 0
11802 1 2 0 77.52395125856242 19.17791745008881 -2.248953582924279 0 0 0
8269 1 1 0 78.62179974561614 20.23760301539935 -1.6470058312745002 0 0 0
11827 1 2 0 78.13743445524064 21.65977150910899 -2.27672331344099 0 0 0
14649 1 2 0 78.6643589915694 20.227613479560688 -3.498575762869075e-08 0 0 0