LAMMPS data file via write_data, version 2 Aug 2023, timestep = 1027, units = metal

15552 atoms
2 atom types

6.49696016218205 198.0873828223541 xlo xhi
5.706781936060745 171.5769525600718 ylo yhi
-100 100 zlo zhi

Masses

1 28.085
2 15.999

Atoms # full

6854 1 1 0 9.940822006913889 7.478982575949552 -1.6431683980568568 0 0 0
9674 1 2 0 9.627279228795606 5.997229864452686 -2.234125404468528 0 0 0
9606 1 2 0 11.355735788029081 7.939455336533909 -2.2793908989086757 0 0 0
6853 1 1 0 8.032511690697707 9.723598724975886 -1.6355229133768674 0 0 0
9673 1 2 0 6.578540999937843 9.752014721498217 -2.3308909255126684 0 0 0
9672 1 2 0 8.81322513831699 8.45540962217175 -2.2829054901749624 0 0 0
9670 1 2 0 8.708271790761003 11.095931205540497 -2.166200055602861 0 0 0
9604 1 2 0 11.346734277623948 11.160657095485938 -2.3259646295500156 0 0 0
13334 1 2 0 9.948901572837343 7.4922903119813125 -1.5281158378183492e-07 0 0 0
6813 1 1 0 12.851663718980882 8.032043283069225 -1.6417982259993011 0 0 0
9605 1 2 0 13.651636070236034 6.777954699870788 -2.292302138905665 0 0 0
6814 1 1 0 14.894110159998469 5.941361551788781 -1.641074979668858 0 0 0
9595 1 2 0 16.18910490871471 6.815728105094388 -2.113805814084068 0 0 0
6807 1 1 0 17.700708801116367 7.220012151323232 -1.6292336795592506 0 0 0
9603 1 2 0 13.450526490757516 9.47069834890149 -2.160837772047278 0 0 0
6802 1 1 0 17.513346961559236 10.332572551518423 -1.639233819489532 0 0 0
6812 1 1 0 12.812077299822874 10.895014883872562 -1.6414571127819295 0 0 0
9585 1 2 0 16.046881876971934 10.941140902953197 -2.143298510017344 0 0 0
13293 1 2 0 12.84122476040442 7.929621464225575 -8.628393002219802e-08 0 0 0
13294 1 2 0 14.862881662254866 5.845319742287301 -3.207317477725824e-07 0 0 0
9594 1 2 0 18.584725073156015 5.921785122068837 -2.197225300911653 0 0 0
9598 1 2 0 22.650181968593706 6.796097616749826 -2.209239000986817 0 0 0
9586 1 2 0 17.887346453475207 8.796884999112757 -2.2119923459958155 0 0 0
6809 1 1 0 23.211976911690044 8.267483649844255 -1.639893620806878 0 0 0
9596 1 2 0 22.46721760849332 9.67443741866139 -2.1879803761990226 0 0 0
13287 1 2 0 17.938025039294462 7.301462279273505 -3.2946553736344416e-07 0 0 0
13289 1 2 0 23.070214530758953 8.247116100026494 -1.4867063400562688e-07 0 0 0
13288 1 2 0 22.279037571378183 11.183179252764283 -2.078078253099634e-07 0 0 0
9611 1 2 0 27.25022985384852 7.368466891501682 -2.2257201073115223 0 0 0
6830 1 1 0 28.06344325219949 6.040616297602288 -1.646320615562672 0 0 0
9599 1 2 0 24.777568298380828 8.32955366528259 -2.1455478870177878 0 0 0
6816 1 1 0 26.317487993118043 8.606227506351917 -1.6429449739605064 0 0 0
9608 1 2 0 26.767381067910623 10.08972470542485 -2.256008293082253 0 0 0
13310 1 2 0 28.04163093810308 6.04628241968223 -2.3664743726218725e-07 0 0 0
13296 1 2 0 26.417575806740775 8.616064526762019 -1.4488840447331508e-07 0 0 0
9627 1 2 0 29.61788390291424 6.141465811559219 -2.1977858872490965 0 0 0
6825 1 1 0 31.125407673655022 6.537416460506942 -1.647179443305873 0 0 0
9618 1 2 0 31.469162107429433 8.068196875238542 -2.212308959540083 0 0 0
6820 1 1 0 32.30503695090937 9.387862021176975 -1.6376871182308033 0 0 0
9616 1 2 0 33.847169859814876 9.102839228046577 -2.1319950325246104 0 0 0
9617 1 2 0 31.828951042826116 10.882664980892987 -2.212651664025739 0 0 0
6826 1 1 0 37.26299412453529 6.996621745351677 -1.6452820016338874 0 0 0
9629 1 2 0 38.779917380873485 7.2319846159629515 -2.2166728618050326 0 0 0
6832 1 1 0 40.297461378395056 7.464320223228068 -1.6444994538502562 0 0 0
6821 1 1 0 35.3771051815662 9.413311755333682 -1.6394929516504069 0 0 0
9620 1 2 0 36.322159741103874 8.210173398605594 -2.247903450154948 0 0 0
9619 1 2 0 35.78608782504867 10.885890428217301 -2.2567311504322864 0 0 0
13306 1 2 0 37.22017286404865 7.002400800645193 -1.26769574336063e-07 0 0 0
9638 1 2 0 41.23058126317024 6.234396725669181 -2.226569460797173 0 0 0
9648 1 2 0 45.63947481292142 7.012898567277058 -2.210947054502035 0 0 0
9635 1 2 0 40.77579473701581 8.929810324922398 -2.2275062259994685 0 0 0
6831 1 1 0 41.29410117913905 10.380759772720873 -1.6451818272052812 0 0 0
9647 1 2 0 45.28761663200966 9.761818759001192 -2.208456834860102 0 0 0
9637 1 2 0 42.80507739268023 10.591140031166233 -2.2389182430539325 0 0 0
6840 1 1 0 44.28829504390417 10.954195154554375 -1.644902281698591 0 0 0
13312 1 2 0 40.338906628712046 7.469999855138963 -2.134778797008614e-07 0 0 0
6845 1 1 0 51.09122779377228 6.521513741655718 -1.6457173134649286 0 0 0
9650 1 2 0 50.19166607324445 7.802201164715034 -2.20095985956238 0 0 0
6838 1 1 0 46.16709320681067 8.477390340028435 -1.6455180533391098 0 0 0
6839 1 1 0 49.192765628773 9.006532121232123 -1.6453491096753368 0 0 0
9646 1 2 0 47.69239576773698 8.668502130376728 -2.226331364358185 0 0 0
9649 1 2 0 49.574980893805915 10.522012689394641 -2.1996640165135126 0 0 0
13318 1 2 0 46.13426534754615 8.473641210705086 -3.201455911107403e-08 0 0 0
6851 1 1 0 54.14218235516081 7.02309212098528 -1.6456541456327232 0 0 0
9660 1 2 0 52.62684443693214 6.709816511837107 -2.2174357728771423 0 0 0
9669 1 2 0 55.15211717969904 5.8231434665900155 -2.19532076321705 0 0 0
6850 1 1 0 55.04577328568953 10.016860681885586 -1.645856195749421 0 0 0
9667 1 2 0 54.56235927673304 8.529110082437143 -2.2017671850234675 0 0 0
9668 1 2 0 56.58304828893727 10.232329192956831 -2.211010863786802 0 0 0
13331 1 2 0 54.15729910804192 7.025918793278021 -2.1219811667781292e-07 0 0 0
9721 1 2 0 59.630511987964155 6.545588001568793 -2.19858350208 0 0 0
6885 1 1 0 60.10627013783125 8.040745634019446 -1.6461379923345565 0 0 0
9715 1 2 0 59.10773754752583 9.257921837755376 -2.1929674638645507 0 0 0
9723 1 2 0 61.64145294297907 8.317994849215577 -2.204278349865526 0 0 0
6880 1 1 0 58.11580338914136 10.478299782169776 -1.6458198530510382 0 0 0
13365 1 2 0 60.09001663236698 8.038713748983 -1.0115704683955034e-07 0 0 0
8311 1 1 0 65.17315834371523 6.1418954674523025 -1.6461744541512129 0 0 0
11888 1 2 0 64.1675539028132 7.353434107726442 -2.1944528121582465 0 0 0
11893 1 2 0 66.70874391559059 6.432171984185245 -2.20490871968776 0 0 0
8316 1 1 0 68.23652402860559 6.76116322460363 -1.646263774764814 0 0 0
8308 1 1 0 63.18005388918216 8.578198701685643 -1.646208042509263 0 0 0
11887 1 2 0 63.6749428912373 10.06935981620589 -2.1950987087868965 0 0 0
11896 1 2 0 68.12077212012578 10.968890997869376 -2.194703247749295 0 0 0
11908 1 2 0 73.67662594484415 6.419081190078172 -2.1927600543950083 0 0 0
11897 1 2 0 68.68428851713186 8.268852341634505 -2.1941961274137136 0 0 0
8314 1 1 0 69.1366738276541 9.774003826556003 -1.6457243682607976 0 0 0
11898 1 2 0 70.65227999335151 10.125215045106513 -2.209521511380288 0 0 0
11902 1 2 0 73.12696323986897 9.152529194433647 -2.1957073574439563 0 0 0
8317 1 1 0 72.18328928620612 10.406751688528324 -1.6465294039670042 0 0 0
8321 1 1 0 74.10662818611783 7.927213464859908 -1.6450919726966198 0 0 0
14797 1 2 0 72.19696181185215 10.418827900674462 -3.8544843936637505e-07 0 0 0
11914 1 2 0 78.12181910357411 7.382587217342772 -2.2038330969377435 0 0 0
8327 1 1 0 79.17716924133603 6.220102963964502 -1.6414760183581119 0 0 0
11909 1 2 0 75.62041127788113 8.230306295786676 -2.2185054351474345 0 0 0
8324 1 1 0 77.12287853069134 8.593439652629806 -1.6462959428198312 0 0 0
11913 1 2 0 77.46342121077411 10.134993296533537 -2.1907931923261343 0 0 0
14807 1 2 0 79.08394219374985 6.172682020197219 -3.9934683382412884e-07 0 0 0
11919 1 2 0 80.65548107349495 6.734688751884571 -2.155924177829387 0 0 0
8332 1 1 0 82.20491033910326 6.969289225879428 -1.6424125713528077 0 0 0
8330 1 1 0 82.76056829989047 10.060044035536691 -1.6367809764157273 0 0 0
11924 1 2 0 82.68972131184701 8.484464873364757 -2.206672342491281 0 0 0
11923 1 2 0 81.46576252069183 10.96720075730772 -2.1194705323092986 0 0 0
11925 1 2 0 83.99912070402863 10.995696234045548 -2.2184907503553895 0 0 0
14812 1 2 0 82.3283801700719 7.0081308585446305 -3.198832091898339e-07 0 0 0
11935 1 2 0 87.2548812895861 6.664966320908912 -2.2733288110689265 0 0 0
8337 1 1 0 88.03066101862038 7.933631391097059 -1.5614916396349119 0 0 0
11936 1 2 0 89.58302105518528 7.474087036985424 -1.694099604766122 0 0 0
11934 1 2 0 87.8334533359369 9.41293021970726 -2.2701263237024008 0 0 0
8338 1 1 0 87.77807591308364 10.951042357579652 -1.6488528125380406 0 0 0
8341 1 1 0 91.17856509671579 7.738643793200394 -1.562390887026033 0 0 0
11942 1 2 0 91.82601398171687 6.384767194362351 -2.2591160712338048 0 0 0
11941 1 2 0 91.51572301401274 9.193021778555185 -2.267056768748713 0 0 0
11951 1 2 0 95.83318738767001 9.412402244579196 -2.2265778685798714 0 0 0
8342 1 1 0 92.13242190491007 10.605883616470466 -1.647207613484087 0 0 0
8348 1 1 0 95.1199375605876 10.761599276065574 -1.6427284786235612 0 0 0
11944 1 2 0 93.62631828303688 10.716078731647963 -2.2851527421773903 0 0 0
14821 1 2 0 91.69650505847295 7.8023600371576425 -1.4575682866020992e-07 0 0 0
14822 1 2 0 92.07208211427829 10.562407542319955 -1.47298217175158e-07 0 0 0
11952 1 2 0 96.6781162087241 6.921560189783616 -2.263548949715168 0 0 0
6543 1 1 0 101.93545384722518 6.875184794856574 -1.6083450779190664 0 0 0
9182 1 2 0 100.40740015771196 7.4111474663709895 -1.8888340383072602 0 0 0
8347 1 1 0 96.99338669016515 8.417910954358357 -1.6515313589814615 0 0 0
9184 1 2 0 98.39511520413623 9.041004107637926 -2.2684796825517504 0 0 0
6544 1 1 0 99.88027398187315 8.934062823108302 -1.5904890550602182 0 0 0
9180 1 2 0 101.01389289383894 9.876291992306152 -2.3134697807190525 0 0 0
14827 1 2 0 97.01703654882424 8.379367187803242 -4.8503275838244794e-08 0 0 0
13024 1 2 0 99.74706427299797 9.345723044660367 -3.3658961926169143e-07 0 0 0
6852 1 1 0 10.04493191217149 11.85119577131247 -1.6298412201661965 0 0 0
6855 1 1 0 8.393752724690994 14.1397557874577 -1.6445697959008279 0 0 0
9676 1 2 0 6.9967543546729525 13.39348272293948 -2.1652472011217516 0 0 0
9671 1 2 0 9.779499646337754 13.378356569163206 -2.1351372421072408 0 0 0
6857 1 1 0 9.967498114665222 16.59004428348418 -1.6315950542305688 0 0 0
9675 1 2 0 8.764057080380917 15.628323253039396 -2.2442790500526044 0 0 0
9677 1 2 0 11.515752741544137 16.410044020853267 -2.208766093150557 0 0 0
13332 1 2 0 10.170355082566145 11.778396118795936 -1.5369079288167303e-07 0 0 0
13337 1 2 0 10.08853166713341 16.399690419133826 -9.305900005408894e-08 0 0 0
6804 1 1 0 15.282327688728174 12.330399532431626 -1.63852584700778 0 0 0
9590 1 2 0 13.740559616464724 12.126853344587893 -2.165760250796393 0 0 0
9589 1 2 0 15.639667975835298 13.823598603609451 -2.249938301152454 0 0 0
6805 1 1 0 15.56399363393443 15.37080561585069 -1.6414709172427877 0 0 0
9592 1 2 0 14.280487487865056 16.29137773761661 -2.2096323278540004 0 0 0
9591 1 2 0 17.03451712569174 15.98821510572867 -2.0960552854164436 0 0 0
13284 1 2 0 15.43856807009995 12.405895365294 -4.2696325650717883e-07 0 0 0
6808 1 1 0 22.25763410262824 11.253081547796702 -1.6490527370120982 0 0 0
6803 1 1 0 19.52703831949697 12.709770931978447 -1.643421954860255 0 0 0
9584 1 2 0 18.457944031919727 11.574866224270442 -2.1838468745656328 0 0 0
9588 1 2 0 20.907684513464922 12.008889474722634 -2.2157634698103617 0 0 0
9597 1 2 0 23.37711684602321 12.312622207806198 -2.248324909396537 0 0 0
9587 1 2 0 19.21490066388075 14.268723576022555 -2.195282829108368 0 0 0
6806 1 1 0 18.617145658574564 15.751609846864994 -1.6384399082962178 0 0 0
13286 1 2 0 18.78128362339579 15.699863848627817 -4.3258206159955874e-08 0 0 0
9609 1 2 0 25.845717022221958 12.776925866167982 -2.0786161824662615 0 0 0
6815 1 1 0 26.923322951306385 11.618341666037113 -1.632069929757148 0 0 0
9610 1 2 0 28.297104537930036 12.312216921281513 -2.212516568582103 0 0 0
6817 1 1 0 24.411857800494143 13.43572358867173 -1.6295126141198355 0 0 0
9612 1 2 0 24.295469398862583 14.995528923804311 -2.2114346449747635 0 0 0
9633 1 2 0 28.54644375380778 15.14419214580645 -2.2168293912865944 0 0 0
6863 1 1 0 24.787637808904343 16.499421035345655 -1.6457915866241628 0 0 0
9688 1 2 0 26.351789637807144 16.742418389107787 -2.1551867038852035 0 0 0
6864 1 1 0 27.922076645073698 16.58313923554425 -1.6443296630837356 0 0 0
13295 1 2 0 26.940091306740214 11.440982378855622 -6.579688314170496e-08 0 0 0
13297 1 2 0 24.210255939274795 13.524251902684215 -4.649097128468086e-08 0 0 0
6829 1 1 0 29.058809076027988 13.668797276997218 -1.6452886976578536 0 0 0
6822 1 1 0 31.838101965712347 12.4560094115829 -1.6468392707229373 0 0 0
9622 1 2 0 30.57810957672728 13.36354549044643 -2.1893430720147635 0 0 0
9621 1 2 0 33.095749637997145 13.353405818915094 -2.2337072405231537 0 0 0
6824 1 1 0 34.25637353177886 14.359805256080785 -1.6358069677773566 0 0 0
9625 1 2 0 34.249091758189365 15.910327739301092 -2.2226094574211985 0 0 0
13304 1 2 0 34.107812876647515 14.450081141126905 -7.94112125355284e-07 0 0 0
6823 1 1 0 36.425183560999095 12.274021142845992 -1.6417106732408828 0 0 0
9624 1 2 0 37.927959226033856 12.397767563905635 -2.267383284674285 0 0 0
9623 1 2 0 35.65813911882889 13.644639028862333 -2.124016168272166 0 0 0
6833 1 1 0 39.38820316711442 12.793622050109779 -1.6452757856347162 0 0 0
9639 1 2 0 39.768385205667066 14.285859195283136 -2.2166527704662413 0 0 0
6869 1 1 0 40.017166770925925 15.810884253755217 -1.6451054730871673 0 0 0
13303 1 2 0 36.433431133122944 12.189635270398602 -9.487853112089228e-08 0 0 0
13313 1 2 0 39.385104144624265 12.805431313333386 -7.71733977540482e-08 0 0 0
9636 1 2 0 40.40967197907588 11.642000670625025 -2.222447906497572 0 0 0
9651 1 2 0 44.6504480600637 12.46738717292195 -2.205174292926518 0 0 0
9655 1 2 0 44.00730596093497 15.157587589995842 -2.20279784343024 0 0 0
6842 1 1 0 45.03954974658073 13.977134639342566 -1.6459398099077436 0 0 0
9698 1 2 0 41.5036682861183 16.238776130897577 -2.2191162279006633 0 0 0
6872 1 1 0 43.04386778751378 16.396690090544634 -1.6456693248994043 0 0 0
13322 1 2 0 45.017224137726096 13.991865217935096 -2.0977665535587709e-07 0 0 0
6841 1 1 0 50.030981001610215 12.019091245452138 -1.6458808716943247 0 0 0
9653 1 2 0 51.56339106895346 12.23520489100063 -2.216686821354088 0 0 0
9654 1 2 0 46.55842425135608 14.261452483937001 -2.2190507643086295 0 0 0
6843 1 1 0 48.0866665987508 14.495115510300094 -1.6457173894638946 0 0 0
9652 1 2 0 49.065338368400525 13.26163053709278 -2.1962673475686563 0 0 0
9656 1 2 0 48.51291410762314 16.000893983923667 -2.1961837341852943 0 0 0
13321 1 2 0 50.00584031951862 12.028952459806712 -7.24298702505558e-08 0 0 0
13323 1 2 0 48.11587475957041 14.476558325277706 -1.7022186018676343e-07 0 0 0
6849 1 1 0 53.09091812806023 12.482848013138003 -1.645695291680023 0 0 0
9665 1 2 0 54.08096592080016 11.259986800602807 -2.195057662148709 0 0 0
9666 1 2 0 53.51756774625044 13.986621937630654 -2.199726607811735 0 0 0
6876 1 1 0 53.96458084317618 15.484972155139996 -1.6457808330885848 0 0 0
9708 1 2 0 52.989134737591385 16.72189012395976 -2.1942549105833575 0 0 0
9709 1 2 0 55.49810122315557 15.70306879144697 -2.2158940022019773 0 0 0
6881 1 1 0 57.032742318577746 15.906917836556842 -1.6455940658698178 0 0 0
13356 1 2 0 53.939106106285465 15.495306036292979 -3.1042901625799866e-08 0 0 0
13361 1 2 0 57.04982710072797 15.893048645246273 -2.0826115509665233e-07 0 0 0
9714 1 2 0 58.57110365912413 11.972119270471826 -2.2050337590762945 0 0 0
9716 1 2 0 58.00974673238639 14.67872028920809 -2.1991929785148288 0 0 0
6882 1 1 0 59.011857102698066 13.469604897428905 -1.6456104413119947 0 0 0
9718 1 2 0 60.54197238117155 13.731146600737535 -2.2081424016613544 0 0 0
8310 1 1 0 62.07588733452709 13.970206924268245 -1.6457342642035446 0 0 0
11891 1 2 0 62.54756091958796 15.453063571137697 -2.2133200388263203 0 0 0
13362 1 2 0 58.98600088715373 13.47674685471734 -1.264261264695035e-07 0 0 0
11889 1 2 0 63.0620442661055 12.752526888027166 -2.1987250711886923 0 0 0
8309 1 1 0 64.10467291624441 11.579797434033393 -1.64609089852591 0 0 0
11890 1 2 0 65.62214592633988 11.936239527702178 -2.20619849441127 0 0 0
8315 1 1 0 67.15808926328356 12.207267805907515 -1.6460347001181783 0 0 0
11899 1 2 0 67.68678429295474 13.68705257439335 -2.1970875117030455 0 0 0
8319 1 1 0 68.08955911289495 15.206973680806193 -1.6463135893446903 0 0 0
11906 1 2 0 67.01246032752758 16.33936050428514 -2.204731591293019 0 0 0
14789 1 2 0 64.09295112182078 11.57600246346856 -3.1960727102544735e-07 0 0 0
14795 1 2 0 67.16280488049946 12.21402228596343 -3.7716342239647764e-07 0 0 0
11901 1 2 0 72.70060734053696 11.895716641948354 -2.197684754255068 0 0 0
11903 1 2 0 71.9485486321353 14.54028314226406 -2.1867535727103062 0 0 0
8318 1 1 0 73.04955326891839 13.431009216650539 -1.6448140218392064 0 0 0
11905 1 2 0 69.57943522248713 15.667729481273652 -2.2042667106486062 0 0 0
8320 1 1 0 71.12757435715017 15.870610912684418 -1.645243788691365 0 0 0
14798 1 2 0 73.07271907207118 13.376918693550044 -3.6016283607649934e-07 0 0 0
14800 1 2 0 71.12865687193695 15.909598947056654 -1.3347239644138418e-07 0 0 0
8325 1 1 0 77.78874164435325 11.67458114563121 -1.645816934632061 0 0 0
11916 1 2 0 79.22971859652105 12.15511308566857 -2.2653494135762484 0 0 0
11904 1 2 0 74.4892394898331 14.005895111846861 -2.214175013703991 0 0 0
8326 1 1 0 76.02053215519445 14.257550982180126 -1.6449405679436788 0 0 0
11915 1 2 0 76.80233912495123 12.894988757181155 -2.1789276266515123 0 0 0
11917 1 2 0 76.60256119735095 15.735119308564132 -2.1909282502353853 0 0 0
8331 1 1 0 80.72802605092363 12.36758815247473 -1.6434194230638977 0 0 0
8334 1 1 0 85.01466249633847 12.172185135502376 -1.6463381849675338 0 0 0
11926 1 2 0 81.30152766830986 13.818989566272304 -2.2318719654144124 0 0 0
11929 1 2 0 84.91869490111486 13.726077650552778 -2.231643814064422 0 0 0
11932 1 2 0 80.85753385354806 16.612749248299874 -2.2503153868329653 0 0 0
8335 1 1 0 81.68276503287228 15.324817105992175 -1.6242090112250003 0 0 0
11931 1 2 0 83.22793273507342 15.711144992394319 -2.013737756494487 0 0 0
8336 1 1 0 84.75571090821484 15.265328193868132 -1.6202853969415025 0 0 0
14811 1 2 0 80.74921378124283 12.454128574615376 -3.679712100664754e-07 0 0 0
14815 1 2 0 81.42978734432785 15.269620150551772 -1.6045542016464532e-07 0 0 0
11930 1 2 0 86.43040988217773 11.634956806658984 -2.2399045370575807 0 0 0
11937 1 2 0 88.91426269895514 11.975720861882149 -2.2478990129129945 0 0 0
8343 1 1 0 90.14879777016313 12.87367891306763 -1.6397735490475307 0 0 0
11945 1 2 0 90.16213170691825 14.431292625092832 -2.2099443316801035 0 0 0
11933 1 2 0 85.73400050413291 16.473851882932994 -2.22665087024575 0 0 0
8363 1 1 0 90.84522252005952 15.846759795612238 -1.647257047625993 0 0 0
14823 1 2 0 90.05885640409488 12.949464100860403 -2.8819077203938416e-07 0 0 0
14843 1 2 0 90.81123481987674 15.855751219332511 -9.750236664416265e-08 0 0 0
11943 1 2 0 91.46100976037339 12.020752568340043 -2.1564790612355162 0 0 0
11953 1 2 0 95.8625174871805 12.111581673145617 -2.206176814455856 0 0 0
11958 1 2 0 94.74505484853577 14.548606214724664 -2.2084601950404554 0 0 0
8352 1 1 0 96.00419762520143 13.649082470211859 -1.6475364921803612 0 0 0
11972 1 2 0 92.39353591382464 15.841940787152607 -2.2212423281470026 0 0 0
8364 1 1 0 93.9277315391298 15.865774049415986 -1.6463075444296162 0 0 0
14832 1 2 0 96.00177713874612 13.66522255874595 -3.001542594153157e-07 0 0 0
14844 1 2 0 93.91958741969421 15.873449105741525 -2.596418342342737e-08 0 0 0
9181 1 2 0 102.18841431820475 12.067420945746969 -2.260020357215758 0 0 0
11957 1 2 0 97.41673375096276 14.227269238536874 -2.2891872497121173 0 0 0
8353 1 1 0 98.9056163646984 14.397619200573553 -1.628106947100437 0 0 0
6546 1 1 0 101.48066101529523 13.353030507584757 -1.6328595663703827 0 0 0
9188 1 2 0 99.89631844289016 13.151976780174515 -2.0638584925189614 0 0 0
11959 1 2 0 99.77811417973662 15.65656505281123 -2.2333154405517686 0 0 0
13026 1 2 0 101.5605427170461 13.436763466431755 -4.546671957875207e-09 0 0 0
6912 1 1 0 7.857798923922481 18.70348800849529 -1.6314694580265825 0 0 0
9679 1 2 0 9.328563054916536 18.048625238510645 -2.051159271865004 0 0 0
9765 1 2 0 8.16189527877497 20.23758584210998 -2.164252593729982 0 0 0
6913 1 1 0 9.43757014028069 21.184911870252044 -1.6456052217530004 0 0 0
9727 1 2 0 10.968301769063384 20.78118736017382 -2.20577415165037 0 0 0
13392 1 2 0 7.674936167710912 18.641587419192394 -7.561912195622155e-08 0 0 0
13393 1 2 0 9.53920475051668 21.156721644303083 -8.655507789384384e-08 0 0 0
6856 1 1 0 12.927902566716925 17.11311768615607 -1.6476568064119634 0 0 0
9678 1 2 0 12.83699024951708 18.68609910766048 -2.1742170037269037 0 0 0
6887 1 1 0 12.45248052617448 20.216416480957754 -1.6461729241392684 0 0 0
9726 1 2 0 13.725518100463887 21.125905616469087 -2.194756737315214 0 0 0
6889 1 1 0 14.904453977066526 22.158571708460798 -1.646373792565693 0 0 0
9728 1 2 0 16.430949269697415 21.635127932064652 -2.1613426989520192 0 0 0
13336 1 2 0 12.997224674318325 17.086603630827405 -1.812591272335666e-08 0 0 0
9593 1 2 0 19.385623925872398 17.134088427868296 -2.191943200031264 0 0 0
6886 1 1 0 19.795609708443664 18.67114123449318 -1.6478762796251463 0 0 0
9724 1 2 0 18.73428889106561 19.87685914375194 -2.1715513148017944 0 0 0
9725 1 2 0 21.36371309064552 18.96007633995054 -2.1593041167867777 0 0 0
6896 1 1 0 22.947276492374513 19.088425003305098 -1.6470977846600003 0 0 0
6888 1 1 0 18.01674501640517 21.313608779918383 -1.6481939761351019 0 0 0
13366 1 2 0 19.762296924910185 18.66264788892754 -3.600749676582012e-08 0 0 0
13376 1 2 0 23.00859860848142 19.073288341242872 -1.1669198015008653e-07 0 0 0
9689 1 2 0 23.831560462250263 17.76008869373757 -2.188240874727121 0 0 0
9690 1 2 0 28.802072746797077 17.88503589192931 -2.1993386408645197 0 0 0
6917 1 1 0 24.5017607159375 21.829671950751386 -1.6353987356224406 0 0 0
9741 1 2 0 23.556558807899602 20.55844418405137 -2.193057091626253 0 0 0
9772 1 2 0 26.040686222656955 21.424312122055568 -2.093550782156312 0 0 0
6918 1 1 0 27.583101000011332 21.798016726681084 -1.637134387052633 0 0 0
9753 1 2 0 28.597345748186665 20.61419029638871 -2.2161147685667886 0 0 0
13398 1 2 0 27.734472912949325 21.825209814377267 -7.491369519181993e-08 0 0 0
6903 1 1 0 29.470554248763264 19.31062209396454 -1.6484711689587828 0 0 0
9752 1 2 0 31.04132405241115 19.437240563081588 -2.1911581281248744 0 0 0
6904 1 1 0 32.5913355047113 19.711733654977774 -1.6456250214930952 0 0 0
9700 1 2 0 33.624999464322094 18.53048900616622 -2.2013354436722987 0 0 0
9754 1 2 0 33.14091766010495 21.183091888208875 -2.1873713348761785 0 0 0
6870 1 1 0 34.71488026252543 17.40339528546924 -1.6482054109044346 0 0 0
9697 1 2 0 38.828153898632806 16.8156161204867 -2.207888724534785 0 0 0
9699 1 2 0 36.25281743225344 17.740201245270203 -2.1898976983955505 0 0 0
6871 1 1 0 37.802036938127436 17.993425564486543 -1.645794856747289 0 0 0
9701 1 2 0 38.38092474854619 19.434109583645917 -2.2156987703960986 0 0 0
6921 1 1 0 38.818029417030445 20.92340218191156 -1.6453091093531493 0 0 0
9779 1 2 0 37.68249133206072 21.97241917904924 -2.2159866986573515 0 0 0
13350 1 2 0 34.708810364186014 17.411685002598226 -1.0808495557866157e-07 0 0 0
13351 1 2 0 37.791294657348615 17.99772228096324 -2.8821765707645673e-07 0 0 0
9778 1 2 0 40.32239711041667 21.349789447095347 -2.1969375642044997 0 0 0
6906 1 1 0 43.92433128904339 19.38586862440147 -1.6449810790721449 0 0 0
9702 1 2 0 43.54320061581373 17.873275658099026 -2.198635271317971 0 0 0
9756 1 2 0 45.44410918369902 19.68469100037256 -2.210098047326554 0 0 0
6922 1 1 0 41.84301768547897 21.72454352556431 -1.6464162510998746 0 0 0
9757 1 2 0 42.88916240045819 20.55773428218673 -2.2070438353079007 0 0 0
6877 1 1 0 48.94355139546108 17.506854891677825 -1.6455861362084168 0 0 0
9711 1 2 0 47.97100570882299 18.746094105707815 -2.1959838628356305 0 0 0
9710 1 2 0 50.47732326028436 17.73042362942077 -2.2116994321634578 0 0 0
6907 1 1 0 46.96914239166526 19.964448171814727 -1.645822425973332 0 0 0
9758 1 2 0 47.35632418109059 21.483453590787352 -2.1980721248102335 0 0 0
13357 1 2 0 48.90860125804539 17.516764527611212 -7.39977766427183e-08 0 0 0
6878 1 1 0 52.01013456302413 17.95684154903853 -1.6457121239112849 0 0 0
9712 1 2 0 52.450420538473765 19.457397995756327 -2.200992919831319 0 0 0
9785 1 2 0 51.88176115465348 22.187647616013255 -2.193471091626581 0 0 0
6925 1 1 0 52.877042153137 20.9626995054234 -1.645993748574852 0 0 0
6926 1 1 0 55.961479816480576 21.331500954561378 -1.6455536534469681 0 0 0
9784 1 2 0 54.41371462661374 21.20085722610513 -2.2081024145264005 0 0 0
9786 1 2 0 56.897448059000084 20.07453941394196 -2.2013271324920964 0 0 0
13406 1 2 0 55.968686973347616 21.31706800545075 -2.505114753646475e-07 0 0 0
13405 1 2 0 52.843784388498 20.969340138490185 -1.7361027393024727e-09 0 0 0
9717 1 2 0 57.50830909562171 17.390907039956705 -2.2035348477803054 0 0 0
6927 1 1 0 57.92556781513186 18.89170240067834 -1.6456617319108509 0 0 0
6972 1 1 0 60.98300510734729 19.355859451954526 -1.6454771853682717 0 0 0
9788 1 2 0 59.447826127716 19.1683718594618 -2.219631680002304 0 0 0
9858 1 2 0 61.94704857360854 18.12944555996367 -2.210488924687665 0 0 0
9857 1 2 0 61.50291811858973 20.82149629972279 -2.2027072447371876 0 0 0
13407 1 2 0 57.91042519046819 18.907844437505428 -6.266908638791212e-07 0 0 0
8355 1 1 0 62.96900156898915 16.949741484953815 -1.6451497382794324 0 0 0
11961 1 2 0 64.49061307030044 17.250620219943144 -2.2024056598445028 0 0 0
8356 1 1 0 66.0153629109644 17.53804790509772 -1.6449437847379231 0 0 0
11962 1 2 0 66.44861536699541 19.0283964056967 -2.219854707727774 0 0 0
12009 1 2 0 65.97202584924563 21.73127724631722 -2.2102850205534748 0 0 0
8387 1 1 0 66.93346421076623 20.502437513719883 -1.6451057647615361 0 0 0
12010 1 2 0 68.4675858277863 20.728689403034746 -2.2013813384694276 0 0 0
14835 1 2 0 62.93480753847837 16.952730193818688 -1.4193968006982197e-07 0 0 0
14836 1 2 0 66.05389477840205 17.5454846104104 -1.7399475468066368e-07 0 0 0
14867 1 2 0 66.89362843553705 20.50365718309938 -2.776087706420349e-07 0 0 0
11907 1 2 0 71.81003090626609 17.28951446982855 -2.1984634258658295 0 0 0
11986 1 2 0 71.00355775179203 19.84075789549666 -2.215448768327475 0 0 0
8371 1 1 0 72.17754087410171 18.823185742811443 -1.6458551747138075 0 0 0
11985 1 2 0 73.63122358753638 19.435043672128614 -2.1760532513001904 0 0 0
8389 1 1 0 69.99138141872473 21.010915505305753 -1.6450926318908858 0 0 0
14869 1 2 0 70.02283073424739 21.019184711519927 -2.5619223860248716e-07 0 0 0
8359 1 1 0 77.04628420622572 17.262556195446738 -1.6453038750565216 0 0 0
8372 1 1 0 75.17777562209689 19.77103247213488 -1.6453849680914359 0 0 0
11967 1 2 0 76.05959343018655 18.476528036419214 -2.2017526128525904 0 0 0
11966 1 2 0 78.53928508584136 17.73304078967633 -2.1821926084648884 0 0 0
11987 1 2 0 75.77413823538538 21.258363987716404 -2.164455190534336 0 0 0
8360 1 1 0 80.09010736850762 17.955246015970523 -1.6465627303114332 0 0 0
11968 1 2 0 80.7524388279384 19.397359811295157 -2.1770777476067447 0 0 0
11990 1 2 0 85.11086537296993 19.13237264410445 -2.131000615179349 0 0 0
12016 1 2 0 80.51756184028696 22.144536643529754 -2.1526764453369758 0 0 0
8392 1 1 0 81.4517310196604 20.831983172504668 -1.6478313755033422 0 0 0
12017 1 2 0 83.05257717594137 20.915686323636464 -2.1814106709308025 0 0 0
8395 1 1 0 84.6278985473684 20.64864366986222 -1.6418258297370794 0 0 0
14872 1 2 0 81.46958210794094 20.844497630022193 -6.102614606162377e-08 0 0 0
14875 1 2 0 84.58499408876332 20.759980914209553 -8.621423813819976e-08 0 0 0
11973 1 2 0 90.10210748518486 17.22092180048188 -2.2063907549901725 0 0 0
8374 1 1 0 86.19886961769451 17.972877316982842 -1.6453522132092069 0 0 0
11989 1 2 0 87.71065468004639 18.38392471964488 -2.2013624086063523 0 0 0
8375 1 1 0 89.27207434232433 18.55553426970374 -1.6467846225450562 0 0 0
12021 1 2 0 85.79675208029575 21.71893263048252 -2.1919854780050203 0 0 0
8397 1 1 0 90.04291168650634 21.596778994469904 -1.646260308762598 0 0 0
11991 1 2 0 89.97650157405154 19.988660647846245 -2.1532531511643667 0 0 0
12024 1 2 0 88.59304231336824 22.259070668022492 -2.1682653907760563 0 0 0
14854 1 2 0 86.23966868334043 17.90822681830058 -1.1565112597547215e-09 0 0 0
14855 1 2 0 89.27705559513247 18.545295855650124 -9.311074498445081e-08 0 0 0
14877 1 2 0 90.10264332595156 21.62527137616008 -5.243410727653322e-07 0 0 0
11974 1 2 0 94.6560778067773 17.211997165726885 -2.2629984661559477 0 0 0
8380 1 1 0 95.74060216861264 18.26586787526918 -1.6356280196429742 0 0 0
11999 1 2 0 95.43162733488091 19.75876705133009 -2.2487856698365074 0 0 0
12025 1 2 0 94.01620367089167 21.921957570078245 -2.24677064620607 0 0 0
8399 1 1 0 95.4041302944979 21.290362957998617 -1.6437942073433962 0 0 0
8379 1 1 0 100.76197650203632 16.84400226052231 -1.6370237687060278 0 0 0
11998 1 2 0 97.27350406886974 17.80091428670071 -2.077101514410322 0 0 0
11997 1 2 0 100.02610402629934 18.177674560514415 -2.2330293301303983 0 0 0
8381 1 1 0 98.59337094080489 18.701323827482124 -1.6393397941798173 0 0 0
12027 1 2 0 96.7554849727758 22.153315549028463 -2.1070303982470646 0 0 0
12000 1 2 0 98.47267582326145 20.18429864936769 -2.299802671657243 0 0 0
8411 1 1 0 98.27723359952152 21.67013977533478 -1.6424931601571249 0 0 0
9265 1 2 0 102.19040945411906 21.87740737288588 -2.208165370066496 0 0 0
6977 1 1 0 7.5771432963592344 23.55468190599888 -1.6453116336772433 0 0 0
9767 1 2 0 8.892119772747245 22.670234527238804 -2.1647815464096936 0 0 0
9865 1 2 0 7.832405447487681 25.099673927499126 -2.2262186457623487 0 0 0
6979 1 1 0 8.607593772923673 26.440970684098385 -1.644351913843993 0 0 0
9867 1 2 0 10.176830653072235 26.441079896120126 -2.143087256864175 0 0 0
6978 1 1 0 11.559718577436493 27.184551488880764 -1.6400183333067897 0 0 0
13457 1 2 0 7.572828742306099 23.62191294721685 -8.307319468476875e-07 0 0 0
13459 1 2 0 8.522108245161421 26.456253715633032 -2.2686489754786645e-07 0 0 0
9730 1 2 0 14.323716786364416 23.644361622127402 -2.174184247190916 0 0 0
9822 1 2 0 12.715383308554449 26.1226780501711 -2.2175604230999735 0 0 0
6949 1 1 0 13.969770414749172 25.189104952575004 -1.636309413761122 0 0 0