LAMMPS data file via write_data, version 2 Aug 2023, timestep = 1546, units = metal

15432 atoms
2 atom types

6.55817941585593 197.84432144432816 xlo xhi
5.669051159278845 170.46719304849373 ylo yhi
-100 100 zlo zhi

Masses

1 28.085
2 15.999

Atoms # full

9578 1 2 0 7.224810517391454 7.213558374222151 -2.205092384776155 0 0 0
6789 1 1 0 11.360302147408872 7.490954321958765 -1.646227644405027 0 0 0
9574 1 2 0 9.894436546113312 7.95984239067819 -2.2620166863455005 0 0 0
9575 1 2 0 11.710885936412776 6.013268941209147 -2.2399424656371814 0 0 0
6791 1 1 0 8.394118204149956 8.223762564992395 -1.6346315509100946 0 0 0
9576 1 2 0 7.835156963014801 9.685662786615532 -2.111068019112836 0 0 0
9569 1 2 0 12.045733274804787 10.797622202621257 -2.2317588618543214 0 0 0
13219 1 2 0 11.280522716692008 7.541010738544255 -7.804864303260901e-08 0 0 0
13221 1 2 0 8.499237726479231 8.098516568484818 -1.9400455083330218e-07 0 0 0
6790 1 1 0 8.037170209902607 11.23517900811277 -1.6354674832008325 0 0 0
13220 1 2 0 8.077919986798477 11.382281400988218 -1.0212352093022948e-07 0 0 0
6796 1 1 0 17.74173720373689 7.490744385672567 -1.6532429078246167 0 0 0
9586 1 2 0 16.757461892782562 6.304402820516074 -2.260782272556427 0 0 0
6787 1 1 0 13.20558561371469 9.797147208319831 -1.6416599527383198 0 0 0
9570 1 2 0 12.672061609170214 8.333985188297985 -2.166900305547556 0 0 0
9571 1 2 0 14.706795202067513 10.119309640992986 -2.242810604205914 0 0 0
6792 1 1 0 16.253899136963724 10.162093511623024 -1.646733891298722 0 0 0
9580 1 2 0 17.10269735188756 8.883979950667031 -2.232047171454396 0 0 0
13226 1 2 0 17.729844564059984 7.473711969241896 -6.219150286073691e-07 0 0 0
13217 1 2 0 13.278942208607365 9.883786191948781 -3.546554456140391e-07 0 0 0
9579 1 2 0 17.05525771891272 11.486865278831763 -2.1955898238447347 0 0 0
9587 1 2 0 19.303845450387076 7.377672175663591 -2.1983158576010937 0 0 0
6803 1 1 0 20.531987853711406 6.417077474906947 -1.6362737702204846 0 0 0
9598 1 2 0 22.041203182515577 6.707193532846259 -2.231611701196988 0 0 0
6806 1 1 0 23.39997136131768 7.45343898665423 -1.649022372013854 0 0 0
9601 1 2 0 23.193601932410907 8.978532140121947 -2.219918015906374 0 0 0
6804 1 1 0 23.36179489672603 10.508984128149946 -1.6436058895308518 0 0 0
13236 1 2 0 23.435360735755722 7.440099311147514 -6.81161674726199e-07 0 0 0
9600 1 2 0 22.063949006700607 11.421675328962026 -2.1865176576882703 0 0 0
9604 1 2 0 24.82096814078443 6.741914060445014 -2.170323840287037 0 0 0
9602 1 2 0 24.9116295643135 10.818978454623172 -2.149934629936069 0 0 0
9614 1 2 0 27.686262036313025 11.19730720569192 -2.2048213952616793 0 0 0
9624 1 2 0 30.49755531685475 7.039621992344496 -2.1940644491421972 0 0 0
9622 1 2 0 29.95140702227398 9.66598062045695 -2.217445719249746 0 0 0
6818 1 1 0 30.990943581091113 8.513638603091099 -1.644731559292517 0 0 0
9623 1 2 0 32.52485005656063 8.700533030015272 -2.208843640301455 0 0 0
6820 1 1 0 34.07478544840596 8.77781084916497 -1.6455543878775445 0 0 0
9626 1 2 0 34.580059603977865 10.281864903885612 -2.168493898388162 0 0 0
6819 1 1 0 29.253231966053036 11.064209837932687 -1.6472710494939038 0 0 0
13248 1 2 0 31.002279238182535 8.574874427413445 -3.481153206712818e-07 0 0 0
13249 1 2 0 29.237666473283905 11.028310889342846 -9.532414508868216e-08 0 0 0
9627 1 2 0 34.94228471878432 7.452562576738999 -2.190128101364664 0 0 0
6825 1 1 0 35.54413167730128 5.976554177395111 -1.6488378397215033 0 0 0
9636 1 2 0 39.30997428087558 7.176367449625319 -2.201160949054485 0 0 0
9637 1 2 0 39.80526633365115 9.838457006547454 -2.249017650340927 0 0 0
6826 1 1 0 40.30556566420214 8.36740784136519 -1.6476343499175263 0 0 0
13255 1 2 0 35.53252697682009 6.014685341710031 -7.392949583346246e-08 0 0 0
6827 1 1 0 38.66045169919802 5.758918941667146 -1.6476084335754497 0 1 0
9634 1 2 0 37.09474835989565 5.743533665578446 -2.1983487038308605 0 1 0
13256 1 2 0 40.29307608593156 8.410278107972093 -7.757018317785006e-07 0 0 0
6828 1 1 0 39.35170558387043 11.312334428132672 -1.6367868478372256 0 0 0
9638 1 2 0 41.816736838447845 7.97393302255778 -2.1883739001094464 0 0 0
9644 1 2 0 44.370598644541175 6.9721706253338365 -2.227369771517783 0 0 0
6831 1 1 0 43.36648752206424 8.14206325447514 -1.6464761966175947 0 0 0
9645 1 2 0 43.92152167103553 9.578736777490718 -2.235284589882362 0 0 0
6838 1 1 0 43.876778341895964 11.107869310331424 -1.640527681614038 0 0 0
13268 1 2 0 43.77668825897584 11.02658129109887 -3.5315633097214627e-07 0 0 0
13261 1 2 0 43.38351890635755 8.107429821160018 -1.9837369532880957e-07 0 0 0
6845 1 1 0 48.1600954224753 6.263448449590938 -1.6474826510931437 0 0 0
9665 1 2 0 48.020738079568055 7.814138075367984 -2.2305336365817765 0 0 0
6843 1 1 0 48.25700724665419 9.333369774046252 -1.6378803417057726 0 0 0
9664 1 2 0 47.316601254403906 10.554573138095567 -2.2332201981160513 0 0 0
9666 1 2 0 49.7468713511908 9.717524418712932 -2.1665589093892215 0 0 0
6846 1 1 0 50.85669409865649 10.783047560323892 -1.6423882144394608 0 0 0
13275 1 2 0 48.23040186450562 6.274655672607186 -5.750639598570771e-08 0 0 0
13276 1 2 0 50.93080321484372 10.857223292852009 -5.266383595484763e-07 0 0 0
6850 1 1 0 53.636659978800324 6.305001457796204 -1.6486467638843072 0 0 0
9674 1 2 0 53.70115683149509 7.901888323286319 -2.1841027955663166 0 0 0
6849 1 1 0 53.57171358628415 9.483084198530474 -1.645248549159954 0 0 0
9670 1 2 0 52.18922790176945 10.094650040847002 -2.274418052700727 0 0 0
9675 1 2 0 54.61468410478944 10.684246190637696 -2.1503641015922477 0 0 0
13279 1 2 0 53.614506761522996 9.397205276752608 -3.46419074283152e-07 0 0 0
6859 1 1 0 59.26792406841066 6.492052241041703 -1.6505477516411273 0 0 0
9687 1 2 0 59.31169766582454 8.093046164764433 -2.178201099705201 0 0 0
6857 1 1 0 59.77551893289396 9.616868138965723 -1.6453996616976048 0 0 0
9688 1 2 0 61.32424646930767 9.917478756531988 -2.164889468627876 0 0 0
9685 1 2 0 58.87604519312045 10.920130398944236 -2.187175690444636 0 0 0
6883 1 1 0 62.50592685429976 10.952220259468973 -1.6474540599985994 0 0 0
9691 1 2 0 60.66872340350333 5.721493134069626 -2.1797200661158946 0 1 0
9689 1 2 0 57.864885167655025 5.700671546933336 -2.16376016879406 0 1 0
13289 1 2 0 59.259895314223556 6.4838676178510335 -4.2393545213964823e-08 0 0 0
11815 1 2 0 65.96392992452715 5.822575543409418 -2.2400322082598234 0 0 0
8260 1 1 0 66.68544877198786 7.1649824014097945 -1.6425091376049192 0 0 0
11816 1 2 0 68.2198398168917 7.331119396865824 -2.248473826622983 0 0 0
9729 1 2 0 63.95389566728393 10.412286667734493 -2.2391435535176645 0 0 0
8259 1 1 0 65.39721234134258 9.881358619040443 -1.6461711399552879 0 0 0
11813 1 2 0 65.64329546397079 8.338618120489757 -2.133864430254903 0 0 0
11814 1 2 0 66.71331986075666 10.652547877712232 -2.2974835796868005 0 0 0
14690 1 2 0 66.7746193566003 7.118918682153234 -2.17258565564569e-07 0 0 0
14689 1 2 0 65.37390901642716 10.03286435463361 -3.888301570199532e-08 0 0 0
14693 1 2 0 67.94769148390338 11.290389968090192 -5.189469947954035e-07 0 0 0
8268 1 1 0 69.75278340435581 7.487473208268922 -1.6451641401492438 0 0 0
11829 1 2 0 70.68197034499624 6.217520261800241 -2.1475305322694997 0 0 0
11840 1 2 0 73.30743136752818 6.795541071687604 -2.2201006548430535 0 0 0
11827 1 2 0 70.46370387735146 8.861911331973053 -2.2446090509309906 0 0 0
8267 1 1 0 71.59987884869753 9.881231348173424 -1.618804481957431 0 0 0
11828 1 2 0 73.09985122434598 9.770472604962698 -2.2803021062675257 0 0 0
8305 1 1 0 72.17782222289512 5.723126899816432 -1.6454196032061998 0 1 0
14735 1 2 0 72.23808137764082 5.680495904559677 -9.085610396957596e-07 0 1 0
11825 1 2 0 71.29906689188924 11.425142187716602 -1.9917535431977296 0 0 0
8274 1 1 0 74.7676598146227 7.3455271522417025 -1.641873810292671 0 0 0
11836 1 2 0 75.861521844905 6.264380713185607 -2.2128166898201433 0 0 0
8272 1 1 0 77.33892785958882 5.852653978410248 -1.6453229329535637 0 0 0
11832 1 2 0 78.45610804896215 6.881610302383366 -2.2501537922940993 0 0 0
8270 1 1 0 79.56891640893537 7.916025018002033 -1.647276325624546 0 0 0
8273 1 1 0 74.55694472527924 10.237261294362343 -1.6439983420441167 0 0 0
11838 1 2 0 75.36959547751287 8.841978485277501 -2.0785248470835325 0 0 0
11831 1 2 0 79.2083516560538 9.397878936500643 -2.2534055469866128 0 0 0
8271 1 1 0 79.02112308373334 10.904817249091767 -1.6440085877686803 0 0 0
14702 1 2 0 77.38224733235434 5.858499670555707 -8.95289984408748e-07 0 0 0
14700 1 2 0 79.57263864927614 7.942354696971774 -2.322012073014922e-07 0 0 0
14701 1 2 0 79.06203612246877 10.874802615886322 -3.0360881126341246e-07 0 0 0
14703 1 2 0 74.48452596331728 10.38685877360022 -8.722893102433442e-08 0 0 0
11833 1 2 0 81.02930799644507 7.443651579585011 -2.2265228244476014 0 0 0
8276 1 1 0 82.35823229232155 6.6774089033631485 -1.6469673841759076 0 0 0
11842 1 2 0 83.66793181581815 7.464901630999483 -2.2406987585651024 0 0 0
8277 1 1 0 84.57592435263182 8.68784887600609 -1.646624058889701 0 0 0
11844 1 2 0 83.97456377638238 10.110348675518447 -2.2251090358429164 0 0 0
8290 1 1 0 89.55894339531021 7.005302198954747 -1.6458313355848353 0 0 0
11861 1 2 0 88.85289162885186 8.380446688853949 -2.2070138794421834 0 0 0
11845 1 2 0 86.10017602781876 8.391506791309784 -2.1966714462398027 0 0 0
8287 1 1 0 87.48311320645497 9.089924913764083 -1.6461212128530998 0 0 0
11860 1 2 0 87.45862925161802 10.623832584987404 -2.2295533734066533 0 0 0
14717 1 2 0 87.49523185494215 9.05637261831214 -7.51472935806656e-08 0 0 0
11865 1 2 0 88.52297605148512 5.837875093692578 -2.1916731501114075 0 1 0
14720 1 2 0 89.64270134290523 6.942089048673757 -2.520346585646242e-07 0 0 0
11866 1 2 0 91.09532940041845 6.9601972440228135 -2.2398562296308273 0 0 0
8293 1 1 0 92.62489884382069 6.750017016428718 -1.647562734262424 0 0 0
11870 1 2 0 93.6053693665209 7.9504152189526165 -2.2206320622318505 0 0 0
8294 1 1 0 94.74959250285116 8.992332443066847 -1.6480258731841524 0 0 0
11872 1 2 0 94.52319170122912 10.501861343764665 -2.243296569348775 0 0 0
11139 1 2 0 96.2346117478192 8.652914943717292 -2.2472251200348214 0 0 0
14724 1 2 0 94.72257455582418 8.959538656823918 -1.1371123374316813e-07 0 0 0
11138 1 2 0 98.05578941730053 6.882803507704056 -2.224701259838468 0 0 0
7802 1 1 0 97.72654321833186 8.370697730881822 -1.6451545147058022 0 0 0
9110 1 2 0 98.83364148283417 9.450121900052673 -2.2156794593659983 0 0 0
6492 1 1 0 100.2559821131599 10.065420545286319 -1.6474444882069406 0 0 0
9013 1 2 0 101.5250265037557 9.19394832829842 -2.2172857912502533 0 0 0
14232 1 2 0 97.72612154669325 8.414617988623235 -1.3631409511936572e-07 0 0 0
9577 1 2 0 6.744562256422768 12.060151983097795 -2.226377903803742 1 0 0
6788 1 1 0 10.976978809503636 11.89247501392054 -1.647307049753118 0 0 0
9572 1 2 0 9.461620301310989 11.754139381963219 -2.2699521185590434 0 0 0
9573 1 2 0 11.525573636118189 13.299874083165976 -2.2473447327244287 0 0 0
9584 1 2 0 11.828906360601637 15.763115846911454 -2.226261379466545 0 0 0
6860 1 1 0 11.566376576170745 17.275654232730876 -1.6409875504894833 0 0 0
13290 1 2 0 11.439870938345614 17.31332819607992 -2.063513529763394e-07 0 0 0
6794 1 1 0 12.553791412773654 14.406948252516083 -1.6464029157910192 0 0 0
9583 1 2 0 14.096859886735524 14.035210940809376 -2.142425547535141 0 0 0
6795 1 1 0 15.50050306742013 14.788750778606875 -1.6433264613342606 0 0 0
9581 1 2 0 16.912825193220527 14.084901204774138 -2.1939973154371675 0 0 0
9585 1 2 0 15.282651707022039 16.33719400745475 -2.195825813978935 0 0 0
13224 1 2 0 12.55926536789227 14.448149850885866 -1.5830114053133412e-07 0 0 0
13225 1 2 0 15.585808591975416 14.758511342767978 -8.285211625397395e-07 0 0 0
6793 1 1 0 17.874807790743485 12.810350881137028 -1.6477016934264084 0 0 0
9582 1 2 0 19.4687112590727 12.709779265667414 -2.1813124251369684 0 0 0
6805 1 1 0 21.070650099836655 12.66765649905798 -1.6484105473052433 0 0 0
9603 1 2 0 21.819820009768527 14.028250966032415 -2.212487264814482 0 0 0
6813 1 1 0 22.610764950716668 15.358823508775531 -1.6459384585207366 0 0 0
9616 1 2 0 21.622672322888942 16.623261834650002 -2.1141193538830145 0 0 0
13235 1 2 0 21.010677409759687 12.602549711872044 -1.4286159445345174e-07 0 0 0
6812 1 1 0 26.203590363807272 11.716115334722767 -1.6470213851867772 0 0 0
6814 1 1 0 25.616838900072537 14.653234645627192 -1.631475745979118 0 0 0
9615 1 2 0 24.209853907662062 15.388171139037572 -2.192339200782845 0 0 0
9613 1 2 0 25.7836897786521 13.16786754595096 -2.2973171887986497 0 0 0
9617 1 2 0 27.130423862090364 15.242255409102853 -1.9665084667562531 0 0 0
6873 1 1 0 27.771516889758576 16.72215457310219 -1.606718376279147 0 0 0
9625 1 2 0 30.16665084413783 12.343685877868896 -2.1731465563877346 0 0 0
9628 1 2 0 32.85938597764912 12.51081217462225 -2.205892656605434 0 0 0
6821 1 1 0 34.27953252920104 11.843392656164067 -1.6480959280499918 0 0 0
9630 1 2 0 31.27365754756476 14.79071036873236 -2.1831555697433336 0 0 0
6822 1 1 0 31.46558020791343 13.229297277933869 -1.6453909239758826 0 0 0
6875 1 1 0 30.94945786152523 16.33966825474192 -1.651111235204824 0 0 0
13251 1 2 0 34.233240451211124 11.822676780671753 -4.45361897348964e-07 0 0 0
9714 1 2 0 29.37557544616817 16.775008958346383 -2.169595807625327 0 0 0
9716 1 2 0 32.26730331478036 17.281984596388522 -2.1676701497485102 0 0 0
13305 1 2 0 30.925928055329614 16.39998441860504 -8.94470989981572e-09 0 0 0
9629 1 2 0 35.48747024619871 12.842410516431473 -2.1890385300064716 0 0 0
9640 1 2 0 37.8459528174256 11.750963314750265 -2.148269533886791 0 0 0
6829 1 1 0 37.028171313935665 13.106443118279518 -1.6452771967830537 0 0 0
9642 1 2 0 37.65524996497779 14.537123507056274 -2.21997259142619 0 0 0
6876 1 1 0 38.366615981778914 15.929831442103762 -1.6473202464727048 0 0 0
9718 1 2 0 39.90666415169791 16.16233422748259 -2.197892369747003 0 0 0
9641 1 2 0 40.21720163046424 12.633660792839946 -2.12929191762448 0 0 0
9717 1 2 0 37.56635296843116 17.253779049967573 -2.2091218571822466 0 0 0
9656 1 2 0 42.66169891056326 11.992299956296424 -2.28329892006758 0 0 0
9657 1 2 0 45.16919735416598 11.953957961201187 -2.1433022424818056 0 0 0
6839 1 1 0 41.70047594535611 13.154220378996703 -1.641284629498523 0 0 0
9658 1 2 0 42.05598415083018 14.668525005101541 -2.196247777621834 0 0 0
6892 1 1 0 41.462969295197794 16.125228731803386 -1.6477148093036036 0 0 0
9742 1 2 0 42.346594836954566 17.414989384856973 -2.216335007772392 0 0 0
6844 1 1 0 46.71480856794718 11.977957093107047 -1.6359533617723498 0 0 0
9669 1 2 0 50.55141745829339 12.289605828772231 -2.235774768803695 0 0 0
9667 1 2 0 47.22051450026734 13.429441426163315 -2.233285429742266 0 0 0
9671 1 2 0 49.400975497642065 14.790780099792553 -2.1656334363065333 0 0 0
6848 1 1 0 47.84151249795985 14.849959806736981 -1.6435901976202032 0 0 0
6847 1 1 0 50.62366818377652 13.829768224480594 -1.6429472889704417 0 0 0
9673 1 2 0 47.1846397801659 16.25417214674188 -2.2314875089012256 0 0 0
9672 1 2 0 51.942348163490344 14.586312600926288 -2.225234328031116 0 0 0
9682 1 2 0 54.36156273716821 13.644053064442778 -2.1804508349201877 0 0 0
6855 1 1 0 53.433337774511635 14.939503067858764 -1.6451141566550833 0 0 0
9684 1 2 0 53.640031120646945 16.522700900626837 -2.1808580757576657 0 0 0
6854 1 1 0 55.06671429429641 12.21327705021757 -1.6444905213141583 0 0 0
9683 1 2 0 56.59392239924617 12.255793811838245 -2.226524148287525 0 0 0
13284 1 2 0 54.94717618951092 12.238831311462137 -2.787967989844539e-08 0 0 0
13285 1 2 0 53.558537235626716 14.973044873238868 -1.8360171066318144e-07 0 0 0
6856 1 1 0 58.12088037338157 12.307258149353046 -1.6462072331283326 0 0 0
9728 1 2 0 62.21940904578556 12.479258079010926 -2.222181762934202 0 0 0
9686 1 2 0 58.6275627591536 13.794730686304796 -2.1951098857568705 0 0 0
9726 1 2 0 60.93436698874538 14.92115890423684 -2.1719444053637416 0 0 0
6882 1 1 0 59.40043156550081 15.156618927317488 -1.640367315118836 0 0 0
6884 1 1 0 62.20293727708771 14.026299332711126 -1.6446250968682978 0 0 0
13286 1 2 0 58.20771748851255 12.30291809386475 -2.0413444722402783e-07 0 0 0
13314 1 2 0 62.207885322796436 13.953731515943687 -1.9656938001495494e-07 0 0 0
13312 1 2 0 59.25716186117494 15.209493938480417 -8.110087632248469e-08 0 0 0
9727 1 2 0 58.941643006610384 16.6601216024335 -2.2151823193111575 0 0 0
8263 1 1 0 67.59584603575267 11.805872828907882 -1.5398462580725618 0 0 0
9730 1 2 0 63.46740031999004 14.861516407673198 -2.267584837736324 0 0 0
11822 1 2 0 65.97330299424507 15.50464326742045 -2.3693954520744405 0 0 0
8264 1 1 0 67.06942290165738 14.646382167703601 -1.5377275777743946 0 0 0
11820 1 2 0 66.57879276354281 13.097493862164495 -1.5711052819111841 0 0 0
8265 1 1 0 64.54712528669177 15.92111366813356 -1.6531962597860277 0 0 0
14694 1 2 0 67.06283108243808 15.240725927447338 -6.109803173656319e-07 0 0 0
11823 1 2 0 68.60663010661112 14.881341124124896 -2.0990324563931506 0 0 0
11821 1 2 0 68.96728323170679 12.285935659854946 -2.303355782320318 0 0 0
8266 1 1 0 70.41630962752895 12.7264275736102 -1.6154103274250313 0 0 0
11826 1 2 0 71.38152266498946 13.933737071244847 -2.2193176987958205 0 0 0
8303 1 1 0 71.90157355911582 15.397883090750856 -1.643885925452835 0 0 0
8304 1 1 0 69.27784555711807 16.320009900982548 -1.623344200760639 0 0 0
11883 1 2 0 70.7848850862222 16.47319794325639 -2.2240994603699265 0 0 0
11884 1 2 0 73.29108691719611 16.031800304663864 -2.246115025880966 0 0 0
14733 1 2 0 72.03653580742365 15.291393790977741 -1.5663277273994307e-07 0 0 0
14734 1 2 0 69.44846437213711 16.488012840882355 -6.695592113111669e-08 0 0 0
11839 1 2 0 75.12330385967732 11.7159803702143 -2.187932735620095 0 0 0
8275 1 1 0 76.46570892293548 12.586641125020433 -1.6444329887920421 0 0 0
11834 1 2 0 77.63245849152746 11.564626249506434 -2.1838008624771272 0 0 0
11841 1 2 0 76.8259856430816 14.134670207867932 -2.1948070436407487 0 0 0
11890 1 2 0 75.78159340063877 16.55820180221377 -2.184719791563418 0 0 0
8308 1 1 0 77.07019991082248 15.71583183333988 -1.639755252944389 0 0 0
14705 1 2 0 76.37581689784379 12.704205475054035 -7.582673833849608e-07 0 0 0
14738 1 2 0 77.20889961514725 15.59481516453904 -5.719430555097118e-07 0 0 0
8309 1 1 0 74.36426739525784 17.146383879154495 -1.6444979081705535 0 0 0
11891 1 2 0 78.30133216530986 16.72363008694144 -2.169941206095712 0 0 0
11835 1 2 0 80.19558244427229 11.83941645789768 -2.28794451689024 0 0 0
11846 1 2 0 82.68684552605772 12.499396405947031 -2.2459183008095653 0 0 0
8278 1 1 0 83.94750871434438 11.64453843234174 -1.6429606571620872 0 0 0
11847 1 2 0 85.26085099221943 12.43595912545794 -2.2043882400404002 0 0 0
8279 1 1 0 81.22480642876634 12.922394090879992 -1.6448474968521107 0 0 0
11848 1 2 0 80.76824737453991 14.430969399263503 -2.139255351526304 0 0 0
8310 1 1 0 81.53709762165798 15.80860426589798 -1.643308932699859 0 0 0
11894 1 2 0 83.04824965875481 15.693749165023005 -2.269470236744076 0 0 0
8315 1 1 0 84.49866431092362 16.11633879417197 -1.6457246188060644 0 0 0
14740 1 2 0 81.57718706563938 15.86649207125863 -1.8224623658083208e-07 0 0 0
14709 1 2 0 81.22329372319813 12.860311894331746 -2.8905495216249017e-07 0 0 0
14708 1 2 0 83.8969786756362 11.608197506352512 -9.012942708036618e-08 0 0 0
11893 1 2 0 80.83424883452005 17.19047880529573 -2.1869854866457485 0 0 0
8288 1 1 0 88.32157860541021 11.883618827655797 -1.6446516935217932 0 0 0
11863 1 2 0 89.84577588231943 11.714821684284185 -2.2088687911958114 0 0 0
11862 1 2 0 87.68905192283849 13.322261323687773 -2.1574066382884585 0 0 0
8289 1 1 0 86.1648017722242 13.681644155529765 -1.6406507624403017 0 0 0
11864 1 2 0 85.6674283078535 15.121578186849593 -2.2514789012708354 0 0 0
11901 1 2 0 89.31289727795512 16.19275322172955 -2.1738568734002044 0 0 0
11875 1 2 0 90.91570481397687 14.116160757328814 -2.2949204787119637 0 0 0
8316 1 1 0 90.75180692449739 15.596107117441566 -1.6432901042428865 0 0 0
14718 1 2 0 88.32798063833935 11.854459273507494 -2.582372806790048e-07 0 0 0
14719 1 2 0 86.10293016859309 13.746438300130762 -2.1824329121847942e-07 0 0 0
14746 1 2 0 90.79093037953513 15.53243894420513 -2.102602692291853e-08 0 0 0
8296 1 1 0 91.08047601992698 12.625417800915566 -1.6453196783435065 0 0 0
11873 1 2 0 92.41886451063665 11.935439489403606 -2.246225147044376 0 0 0
8295 1 1 0 93.93767174144234 11.899117552610878 -1.6455513722942405 0 0 0
11874 1 2 0 94.7430561247531 13.194804489376311 -2.2385451049009943 0 0 0
8299 1 1 0 95.37862337131381 14.586849933210845 -1.6480851210046292 0 0 0
11902 1 2 0 91.97501951970632 16.530184164837205 -2.196856308166236 0 0 0
11879 1 2 0 94.59209559412884 15.90654496361088 -2.237675563488852 0 0 0
14726 1 2 0 91.14048323180039 12.684560391988331 -3.239024122021718e-08 0 0 0
14729 1 2 0 95.3602753462531 14.5926464057481 -2.5331303686081395e-07 0 0 0
8319 1 1 0 93.4616372182068 16.94042688049058 -1.6442747968861404 0 0 0
14749 1 2 0 93.53373570827958 16.926027647870484 -2.4293439926411804e-07 0 0 0
9108 1 2 0 100.4342542703347 11.579810764967712 -2.2472506857183414 0 0 0
9150 1 2 0 96.89839559424588 14.608185850626725 -2.247705027915998 0 0 0
9109 1 2 0 99.46053245351902 13.997714884707467 -2.238829170444804 0 0 0
6518 1 1 0 98.35131040874627 15.043023969109191 -1.6521857054647169 0 0 0
6491 1 1 0 100.68346213463634 13.085898391156576 -1.6455994239509877 0 0 0
9106 1 2 0 102.09801909263616 13.68392383469808 -2.2204218841753267 0 0 0
9148 1 2 0 98.65173688903418 16.543099382330084 -2.2641274399223295 0 0 0
12948 1 2 0 98.36799040759713 15.04220481958453 -2.1801564778203172e-07 0 0 0
12921 1 2 0 100.6918621776072 13.062078160648827 -3.270208473868605e-07 0 0 0
9146 1 2 0 101.20450377290658 16.828088634174257 -1.684773718753541 0 0 0
9695 1 2 0 7.3296554744249915 17.77981589313219 -2.186872792240729 0 0 0
6862 1 1 0 8.716237214890933 18.55542655615209 -1.6486308248599755 0 0 0
9696 1 2 0 8.725801648150004 20.12202342226297 -2.18105406006648 0 0 0
9693 1 2 0 10.124250615323772 17.86124526226021 -2.228480340933477 0 0 0
6910 1 1 0 8.567350371345176 21.68040746548543 -1.6473797698781907 0 0 0
9770 1 2 0 7.078601426147241 22.18368111958941 -2.2195447641007786 0 0 0
9768 1 2 0 9.866206179407726 22.589385328120834 -2.17856655077385 0 0 0
9692 1 2 0 12.964143029343136 18.042733881191758 -2.1249042589159814 0 0 0
6861 1 1 0 14.526438882265028 17.707817011799364 -1.6459295490214252 0 0 0
9694 1 2 0 15.443527446417018 18.917123267299193 -2.248319599721568 0 0 0
6870 1 1 0 16.20307238470392 20.241618734000017 -1.6474586311898658 0 0 0
9709 1 2 0 17.787016335361628 20.044313029360517 -2.1554299209472405 0 0 0
9710 1 2 0 15.24753775314201 21.506449539326855 -2.193663085063524 0 0 0
13291 1 2 0 14.541370328221102 17.66044198598672 -6.167209128281814e-08 0 0 0
13300 1 2 0 16.22197119569168 20.319844335028474 -6.663529231896359e-08 0 0 0
6908 1 1 0 14.222911645189305 22.70716810498174 -1.638728624047094 0 0 0
9766 1 2 0 12.637475871236786 22.774812034251685 -2.1872012778960848 0 0 0
9707 1 2 0 20.616052669289843 19.261361964152822 -2.1862293426643427 0 0 0
6871 1 1 0 19.368726435295304 20.311776904217812 -1.645182875852404 0 0 0
6869 1 1 0 21.858006805902722 18.208631297988454 -1.6373759730313238 0 0 0
9711 1 2 0 19.571948177555544 21.894975104961233 -2.1527387417366555 0 0 0
13301 1 2 0 19.41310877675173 20.19186536287456 -6.4097022833573e-08 0 0 0
9708 1 2 0 23.45856037872879 18.314169406784455 -2.1340116391536506 0 0 0
9713 1 2 0 26.470404275914614 17.62802567909585 -2.180654094598659 0 0 0
6874 1 1 0 25.064226647498348 18.38507977007463 -1.6456368537979302 0 0 0
9715 1 2 0 25.374454829738067 19.837388819299413 -2.31174818297864 0 0 0
6917 1 1 0 25.84558463241391 21.225072349813274 -1.6589598428299352 0 0 0
9781 1 2 0 27.357992557797143 21.486951343078367 -2.2640741841839476 0 0 0
9780 1 2 0 24.7414659419219 22.27151220484297 -2.2655786544906094 0 0 0
6920 1 1 0 28.22671539305369 22.667819379229243 -1.5298939779609644 0 0 0
13350 1 2 0 28.562300340847912 22.17148909208205 -2.9569273582545784e-07 0 0 0
13304 1 2 0 25.049601186331756 18.191906682567815 -1.0766363205598562e-08 0 0 0
6877 1 1 0 33.54825771380824 18.257993895936206 -1.6414973985409662 0 0 0
9720 1 2 0 33.22812878774191 19.760271123748648 -2.22537468011674 0 0 0
6925 1 1 0 33.394154159649624 21.28001242172613 -1.6476134403515692 0 0 0
9793 1 2 0 32.01296318200379 21.916130507791504 -2.2435497683033696 0 0 0
9786 1 2 0 29.627515693131066 22.939113902638532 -2.322186200349481 0 0 0
6926 1 1 0 31.1161042006901 23.12015890922851 -1.6453544382213008 0 0 0
9794 1 2 0 34.633452892619815 22.18528537971486 -2.2538569381777567 0 0 0
13356 1 2 0 31.074050697442196 23.104496201405375 -6.215034489341535e-07 0 0 0
9719 1 2 0 35.151291608441085 18.12900410536822 -2.1393833204616506 0 0 0
6878 1 1 0 36.7060769627073 18.539162212673883 -1.646163843103755 0 0 0
9721 1 2 0 37.49679520201048 19.943534464588325 -2.184744504715459 0 0 0
6929 1 1 0 38.21618092428676 21.370653064921278 -1.6193613448765742 0 0 0
9800 1 2 0 39.666760020327544 22.01423832192172 -2.189931887419443 0 0 0
9799 1 2 0 37.219016097382784 22.61386813866767 -2.0146908748970844 0 0 0
6930 1 1 0 35.754625064674826 23.221445147811107 -1.624815394637569 0 0 0
9749 1 2 0 44.97551489542416 17.697034930397532 -2.154041961605654 0 0 0
6898 1 1 0 43.5709958735546 18.39847997187686 -1.6447278735026507 0 0 0
9751 1 2 0 43.53602862620279 19.965128907877766 -2.206064550895422 0 0 0
6937 1 1 0 43.62015845810621 21.536013334850914 -1.6463390406628706 0 0 0
13328 1 2 0 43.47948183299997 18.438004718276446 -4.831551522678062e-07 0 0 0
13367 1 2 0 43.66089413426153 21.488710048575648 -4.1716379227447785e-07 0 0 0
9811 1 2 0 42.2817266106546 22.31800325583769 -2.2014111992790424 0 0 0
9812 1 2 0 44.925283486891395 22.416717367933543 -2.1788727484857087 0 0 0
6938 1 1 0 40.89806077476169 23.029651462665395 -1.6488518361109463 0 0 0
13368 1 2 0 40.82875243676857 23.059367543922534 -2.930957700114871e-07 0 0 0
6897 1 1 0 46.54348218152853 17.677277425685446 -1.6443029151789728 0 0 0
9750 1 2 0 47.257302386395594 19.06846522790741 -2.203066707414012 0 0 0
9757 1 2 0 49.62610542222036 20.162055642160723 -2.2005381985522585 0 0 0
6903 1 1 0 51.178098638494596 20.281235494912462 -1.6484493173631962 0 0 0
9758 1 2 0 47.498123454809495 21.881167990490763 -2.1649483474914146 0 0 0
6902 1 1 0 48.088031433953084 20.401501273904746 -1.6473030848927028 0 0 0
13332 1 2 0 48.04217850258058 20.403421405150997 -5.760688289540228e-07 0 0 0
6939 1 1 0 46.38476895019262 23.031044650410088 -1.6472987650010655 0 0 0
13369 1 2 0 46.409000496268966 23.077621341289646 -1.0383275715484705e-07 0 0 0
6901 1 1 0 53.396603207325214 18.09882095236767 -1.6468062580657379 0 0 0
9755 1 2 0 52.043703759471306 18.945353376103807 -2.167020715784307 0 0 0
9759 1 2 0 51.68068362804891 21.76115321378373 -2.221546049459207 0 0 0
9756 1 2 0 54.6398632695192 19.02943308599668 -2.205123804826802 0 0 0
6906 1 1 0 56.02795408032666 19.712388763198557 -1.6475330380660818 0 0 0
9764 1 2 0 56.22220861552669 21.265478744182037 -2.2170867638167597 0 0 0
13331 1 2 0 53.36348742558826 18.039702369041713 -1.2182679764774333e-07 0 0 0
9821 1 2 0 54.053906849904685 22.78059953005404 -2.120341557098986 0 0 0
6945 1 1 0 52.51879716765153 23.06312443493559 -1.637844664021568 0 0 0
6944 1 1 0 55.61335650573597 22.699048199080593 -1.6368640576221087 0 0 0
13375 1 2 0 52.35911969567001 23.101777200017537 -5.196590147173561e-07 0 0 0
6907 1 1 0 58.685225504280375 18.21085306809158 -1.646950083596432 0 0 0
9763 1 2 0 57.21869723991036 18.7193897768471 -2.197082843405142 0 0 0
9765 1 2 0 59.714164132209206 19.3949289210224 -2.2156701383801436 0 0 0
6980 1 1 0 60.30476188913627 20.83079487951616 -1.6497429104007828 0 0 0
9879 1 2 0 61.81433797339472 21.002119128559713 -2.2623598978947244 0 0 0
9878 1 2 0 59.60455013228679 22.263261321460085 -2.1751527085698568 0 0 0
11824 1 2 0 64.40254994657384 17.456573175793785 -2.1879653776719046 0 0 0
8320 1 1 0 65.11781669254746 18.831461956908786 -1.6408355550456157 0 0 0
11907 1 2 0 64.08805592884234 19.917494210773025 -2.229462589013521 0 0 0
11908 1 2 0 66.58582141067453 19.31834183443139 -2.2272048472778763 0 0 0
8324 1 1 0 68.07379290541954 18.964011541646435 -1.6410372239674038 0 0 0
8321 1 1 0 63.30645024662425 21.20586276876345 -1.6471502657102566 0 0 0
11885 1 2 0 68.28346977135222 17.44781054827818 -2.2258945423681493 0 0 0
14754 1 2 0 68.10214918225286 19.091466473925994 -1.8876012577482694e-07 0 0 0
14751 1 2 0 63.23109186887566 21.3138329949048 -8.632878993479458e-07 0 0 0
11909 1 2 0 64.15716893381095 22.440910147472767 -2.3167404626073123 0 0 0
11913 1 2 0 69.32228969229408 19.824249056602454 -2.2666509288670813 0 0 0
11923 1 2 0 72.09384428445863 19.94260677040289 -2.16795539970749 0 0 0
8331 1 1 0 73.65402213952399 20.12102423002827 -1.6449370697295613 0 0 0
8332 1 1 0 70.6600966804589 20.544196004158522 -1.6452618858809085 0 0 0
11925 1 2 0 70.61472076551583 22.035229787180782 -2.287065086367998 0 0 0
14762 1 2 0 70.60800864730925 20.53135576883124 -3.2979395964918744e-07 0 0 0
14761 1 2 0 73.71339775192418 20.17858136403094 -2.9998630102803007e-07 0 0 0
11892 1 2 0 74.31822914822895 18.707489301447794 -2.2041623295203703 0 0 0
8311 1 1 0 79.41982604661301 17.861868915261738 -1.644438858179245 0 0 0
11895 1 2 0 79.45092677891938 19.460153345579734 -2.188973883584807 0 0 0
11924 1 2 0 74.4033202895801 21.512492224746946 -2.197326952996365 0 0 0
11931 1 2 0 78.96263258369957 22.23518770187598 -2.1814858594200826 0 0 0
8337 1 1 0 75.03078148903049 22.97040674547662 -1.6502629103934094 0 0 0
11933 1 2 0 76.5634226153252 23.236222120900038 -2.2031707459430683 0 0 0
11900 1 2 0 84.75408734853457 17.651216852488655 -2.1581335551584613 0 0 0
8336 1 1 0 79.92542957840362 20.98660382148813 -1.6470287732855196 0 0 0
11932 1 2 0 81.45529245724572 21.411350103097483 -2.167100367418465 0 0 0
11936 1 2 0 84.07191439538202 22.151534183307245 -2.239757698835286 0 0 0
8340 1 1 0 82.57465930358582 22.524242537823376 -1.647327017928702 0 0 0
14770 1 2 0 82.58546211383728 22.512653497508257 -4.6661043287730315e-07 0 0 0