LAMMPS data file via write_data, version 2 Aug 2023, timestep = 1269, units = metal

15480 atoms
2 atom types

7.379395747226157 196.70895104206986 xlo xhi
4.924934723380427 171.8874226744955 ylo yhi
-100 100 zlo zhi

Masses

1 28.085
2 15.999

Atoms # full

9593 1 2 0 10.888951292279076 6.085543003184854 -2.0071458563661784 0 0 0
9595 1 2 0 8.081072653977532 8.022704803586644 -2.001152860605985 0 0 0
6804 1 1 0 9.821613796807947 7.566695640604149 -1.639737775464371 0 0 0
9591 1 2 0 10.776621644169955 8.87223061889761 -2.1463482714807607 0 0 0
6802 1 1 0 11.774042891088152 10.152501074479956 -1.6468344991028967 0 0 0
13254 1 2 0 9.74731649515115 7.416459906710847 -2.3761604955958106e-07 0 0 0
13252 1 2 0 11.747003550814007 10.13546062318948 -2.5638482270506995e-07 0 0 0
9570 1 2 0 16.316358010385162 9.600658385999152 -2.190836410316806 0 0 0
6791 1 1 0 17.907244812271195 9.559095012697256 -1.6401905206335166 0 0 0
9574 1 2 0 13.373024034164166 9.926267771918326 -2.157463335958898 0 0 0
6792 1 1 0 14.918144455165677 10.38493978307075 -1.642830629226038 0 0 0
13241 1 2 0 17.791602308013854 9.543407085769283 -1.8230788609509044e-07 0 0 0
9584 1 2 0 19.095458430886417 5.8085859831553845 -2.2231485368705743 0 0 0
6801 1 1 0 19.88117316079238 7.141384552885076 -1.6456662428247495 0 0 0
9572 1 2 0 18.80229219110437 8.28206463302904 -2.1824533220219298 0 0 0
9590 1 2 0 21.460902878669284 7.31529284443966 -2.2207459092794144 0 0 0
6806 1 1 0 23.021990728947728 7.584043228499058 -1.6300978901125756 0 0 0
9597 1 2 0 23.750673688720575 9.042847352796667 -2.014871580380365 0 0 0
13251 1 2 0 19.96909457330598 7.155031446496284 -9.747074608684342e-08 0 0 0
13256 1 2 0 22.866101504430063 7.432077439081428 -1.69989675579471e-08 0 0 0
9598 1 2 0 24.20835350112031 6.516994894643717 -2.1640300171750306 0 0 0
6808 1 1 0 25.808107044281698 6.602115943833547 -1.6473290804343712 0 0 0
9600 1 2 0 26.7694537688984 5.347077254232039 -2.2026740248347276 0 0 0
9601 1 2 0 26.41215336663632 8.046132116982944 -2.2035911187814663 0 0 0
6812 1 1 0 27.247732200608414 9.356837958985434 -1.642459831238877 0 0 0
9608 1 2 0 28.755386113281002 9.184638689669157 -2.2496022778759746 0 0 0
13262 1 2 0 27.208068707780402 9.359317526365036 -3.569992656970556e-08 0 0 0
6814 1 1 0 31.561586235378094 6.315393358737315 -1.6312907784520323 0 0 0
9611 1 2 0 33.09729218488777 6.522542311144069 -2.1399405630349055 0 0 0
6816 1 1 0 34.56386508723045 7.015515028939438 -1.639254224556107 0 0 0
6815 1 1 0 30.26637943317558 9.096293817765721 -1.6479755385655168 0 0 0
9610 1 2 0 30.785852474719302 7.638561972188451 -2.2385743653320223 0 0 0
9614 1 2 0 34.99795535790669 8.474405172390838 -2.2678339067224984 0 0 0
9613 1 2 0 31.00786138853266 10.464135650629162 -2.2299314728067925 0 0 0
6817 1 1 0 34.94739576281581 9.995395519450026 -1.6363894749771017 0 0 0
13267 1 2 0 35.0500264372125 9.913465134428494 -1.2789530501454947e-07 0 0 0
9615 1 2 0 35.54819106195193 5.890716728071286 -2.2892123810919345 0 0 0
9625 1 2 0 38.063183811404464 5.4107966305652155 -2.2210740292249067 0 0 0
6824 1 1 0 39.30825877599968 6.304428985796404 -1.6426918284537988 0 0 0
9628 1 2 0 40.621897125476806 5.548044713598621 -2.2454609135511454 0 0 0
6825 1 1 0 39.716431894508624 9.32177636096561 -1.6427262482673208 0 0 0
9627 1 2 0 39.374320488517334 7.83261480576083 -2.250451302565171 0 0 0
9629 1 2 0 38.57211575925267 10.31504595350693 -2.2421762869082418 0 0 0
13274 1 2 0 39.26874939709139 6.355233970791703 -5.936399673986822e-07 0 0 0
13275 1 2 0 39.74317045011821 9.273722816927826 -7.903634298124387e-07 0 0 0
9638 1 2 0 43.11066388769896 5.021952956223725 -2.214836988773434 0 0 0
6833 1 1 0 44.325524226783266 5.978455285166019 -1.644275235564523 0 0 0
9643 1 2 0 45.67179520114735 5.2466090857080445 -2.2286748145717086 0 0 0
6832 1 1 0 44.69627632263148 9.038290017121719 -1.6439293747503498 0 0 0
9640 1 2 0 44.316413863163234 7.532541470092685 -2.2241881396316887 0 0 0
9642 1 2 0 46.14363109461547 9.560111309129024 -2.2266668514468297 0 0 0
9630 1 2 0 41.119262988800706 9.936901951648132 -2.2333355316406487 0 0 0
9641 1 2 0 43.66816902295531 10.188003831903096 -2.2109352115608294 0 0 0
6848 1 1 0 49.49797901368202 5.589469201223392 -1.6444203431533986 0 0 0
9658 1 2 0 49.59234864451493 7.132106245239822 -2.2284515952096067 0 0 0
6842 1 1 0 49.866106673343445 8.651688762351228 -1.6436344531365765 0 0 0
9656 1 2 0 48.71611021433797 9.659210715190616 -2.227957432736906 0 0 0
9657 1 2 0 51.26156753996203 9.289645717408229 -2.234179377076039 0 0 0
6843 1 1 0 47.40265750782507 10.443246577007809 -1.6437742741030907 0 0 0
9661 1 2 0 53.844692786007236 9.196512935506515 -2.247606626422592 0 0 0
6844 1 1 0 52.59020886358906 10.053197560221264 -1.6439814080411446 0 0 0
9670 1 2 0 54.934088888316005 6.796467896757558 -2.2381711595263285 0 0 0
6851 1 1 0 54.75292464858074 5.275565514952162 -1.6438610226891959 0 0 0
6850 1 1 0 55.08367451688643 8.320756286094289 -1.6437220331054139 0 0 0
9671 1 2 0 56.43756311216991 9.031667290794715 -2.2360458251527278 0 0 0
13301 1 2 0 54.74248547543523 5.28813348907366 -1.34178307586467e-07 0 0 0
13300 1 2 0 55.08662090851073 8.302881602007147 -2.440987572300108e-07 0 0 0
9682 1 2 0 60.02073631463409 6.3789055010201885 -2.2307242652184223 0 0 0
9676 1 2 0 59.03155394427489 8.88989895015302 -2.232163075047328 0 0 0
6858 1 1 0 60.20794537598239 7.906901475020572 -1.6441784618954014 0 0 0
9684 1 2 0 61.61186188286563 8.511881156722346 -2.23782891825272 0 0 0
8278 1 1 0 62.964604163683894 9.225560574679536 -1.6444830835000974 0 0 0
6853 1 1 0 57.77708324257097 9.77264747757905 -1.6442532000048817 0 0 0
11847 1 2 0 65.13429319655106 5.770369323388362 -2.2262961513400397 0 0 0
11845 1 2 0 64.21841077239907 8.33087806440922 -2.2271323350750016 0 0 0
8280 1 1 0 65.3586674815532 7.296081237263532 -1.644103536296543 0 0 0
8284 1 1 0 68.11468997084032 8.593683719943229 -1.6444773946433688 0 0 0
11848 1 2 0 66.80324205913153 7.803623599004055 -2.233008768485045 0 0 0
11853 1 2 0 68.03320820229875 10.13219823654498 -2.228781319487781 0 0 0
14734 1 2 0 68.12910212682245 8.60990025965011 -1.0844981095565788e-07 0 0 0
11858 1 2 0 70.3302543472029 5.241454851732459 -2.229622122285566 0 0 0
8287 1 1 0 70.57771156885734 6.75934522418384 -1.6441600692512772 0 0 0
11859 1 2 0 72.04624340726212 7.207103469616271 -2.2259566154686317 0 0 0
11854 1 2 0 69.43889736228525 7.800889472844912 -2.226505613654978 0 0 0
8290 1 1 0 73.34212566726832 8.028294142486926 -1.6441928800845662 0 0 0
11863 1 2 0 73.18634270268737 9.553429663056049 -2.2372059003156353 0 0 0
14740 1 2 0 73.36811852955111 8.032360467988108 -3.692728682970292e-07 0 0 0
11864 1 2 0 74.71288716168816 7.323687189194662 -2.2276853984037412 0 0 0
8293 1 1 0 75.90557789726728 6.3456152284530125 -1.6442561895744554 0 0 0
11869 1 2 0 77.35734758871763 6.847959327653984 -2.2318437677560947 0 0 0
8296 1 1 0 78.75825420649574 7.482948808814946 -1.6448465082022448 0 0 0
11873 1 2 0 78.8365678511076 9.026672842333452 -2.225995692761399 0 0 0
14743 1 2 0 75.90662940272577 6.355192656096959 -4.534898318242176e-08 0 0 0
14746 1 2 0 78.76680532580795 7.478280550259253 -2.2804647412983165e-07 0 0 0
11874 1 2 0 80.02480726531388 6.583098077219451 -2.2122949299917867 0 0 0
8299 1 1 0 81.32924144763726 5.7329085766487 -1.6450628698247747 0 0 0
11878 1 2 0 82.70382285381288 6.435944771996451 -2.2316439918009245 0 0 0
8300 1 1 0 84.04087710897912 7.19907173121803 -1.6452598309990907 0 0 0
11880 1 2 0 84.05741387939098 8.740994854465228 -2.2447422706980396 0 0 0
8301 1 1 0 83.89852509262492 10.264896390893135 -1.6388782717816817 0 0 0
14749 1 2 0 81.31662397921399 5.740760816987366 -3.1146777237515294e-07 0 0 0
11881 1 2 0 85.38173994242409 6.389722958171772 -2.179971747521387 0 0 0
8305 1 1 0 86.94933413970281 6.30488785312549 -1.6437987217723748 0 0 0
11888 1 2 0 87.71759917545003 7.675281748778713 -2.1964446180091834 0 0 0
8306 1 1 0 88.36472742116705 9.104112566739804 -1.64518372222643 0 0 0
11891 1 2 0 89.90298091523753 9.194436415201286 -2.2206227353242327 0 0 0
11890 1 2 0 87.63477453468639 10.479454628061374 -2.221944794757698 0 0 0
14755 1 2 0 87.00917179257473 6.2820641102201105 -2.5492116154874366e-07 0 0 0
8312 1 1 0 92.76536236588178 6.343939682961663 -1.6455384084253721 0 0 0
11900 1 2 0 94.33789070631414 6.265902582745536 -2.191932466578055 0 0 0
8315 1 1 0 95.5320847301156 7.261956703215282 -1.637413849226115 0 0 0
8311 1 1 0 91.44467247457216 9.200303888680642 -1.6484916889217256 0 0 0
11898 1 2 0 92.1164230763213 7.77772081585165 -2.190533741975144 0 0 0
11904 1 2 0 95.1177337915596 8.761894163697116 -2.200181749802411 0 0 0
8314 1 1 0 95.75974253884698 10.140924280091259 -1.5887215800039887 0 0 0
14764 1 2 0 96.10243734497651 9.85058060601502 -4.620588333750508e-09 0 0 0
11901 1 2 0 92.02617780162994 4.977438820401089 -2.222488327978097 0 1 0
9145 1 2 0 97.03628773722359 7.034662187048596 -2.2585588639332816 0 0 0
6516 1 1 0 98.55300835702796 6.826433965110665 -1.6432330767459569 0 0 0
9144 1 2 0 98.99465761682227 5.354740368771097 -2.181226833549621 0 0 0
9142 1 2 0 99.74373237255577 7.757113271720023 -2.3114347668814132 0 0 0
6515 1 1 0 100.52367772984489 8.965830808961227 -1.514791349216441 0 0 0
9143 1 2 0 99.47336219411795 10.18589021575245 -1.4259798525714416 0 0 0
9132 1 2 0 101.84158509840789 9.538205117833778 -2.302695967936079 0 0 0
9592 1 2 0 11.170509196182492 11.640994900751563 -2.175001722565791 0 0 0
9690 1 2 0 9.216930055630566 13.651210715036209 -2.189255389069462 0 0 0
6862 1 1 0 10.729023595972281 13.179407067983108 -1.6438909532712647 0 0 0
9688 1 2 0 11.753149168762912 14.392796549451997 -2.1614652176061466 0 0 0
6886 1 1 0 8.03344645428647 14.695367583778472 -1.6451319044049444 0 0 0
9573 1 2 0 15.12472661867927 11.919266762029002 -2.211738967438331 0 0 0
9578 1 2 0 14.39689407895127 14.45587027802139 -2.243003519218568 0 0 0
6794 1 1 0 15.507828914105746 13.408635347229986 -1.6451761281586104 0 0 0
9577 1 2 0 16.987614952642463 13.858033984017183 -2.2391641840180307 0 0 0
6861 1 1 0 13.086405684136187 15.247810650405038 -1.6432170585817945 0 0 0
6796 1 1 0 18.01592718215806 15.0002980100127 -1.6340471274257704 0 0 0
13244 1 2 0 15.468425373207745 13.385278249858976 -3.814025858973426e-07 0 0 0
13246 1 2 0 18.00997264155168 14.826145780671638 -5.126993587870456e-08 0 0 0
9571 1 2 0 18.881378595789432 10.807959110703655 -2.1712586464329555 0 0 0
6793 1 1 0 20.39343915653856 11.249930321087975 -1.6430167567794933 0 0 0
9576 1 2 0 21.782814389825568 10.557234235781559 -2.22368467588002 0 0 0
6807 1 1 0 23.341373098177797 10.609109162878347 -1.6268135408418436 0 0 0
6795 1 1 0 20.874072049234183 14.20340988679168 -1.6499632305554126 0 0 0
9575 1 2 0 20.602845474351952 12.733179028146452 -2.2807307236214123 0 0 0
9579 1 2 0 19.55175234631215 14.994600705155527 -2.2168643539439437 0 0 0
9580 1 2 0 22.31923120745588 14.766957277223161 -2.2542318560433707 0 0 0
9599 1 2 0 24.41894171572668 11.787078851945624 -2.1724090279912756 0 0 0
9607 1 2 0 26.819005712376313 10.861721691046217 -2.1847365267887113 0 0 0
6813 1 1 0 25.989871900625385 12.196604381396728 -1.6450015041140602 0 0 0
9609 1 2 0 26.785159758129225 13.61821289331854 -2.1626119109982755 0 0 0
6863 1 1 0 27.47157324108182 15.106495882293451 -1.6431819676679225 0 0 0
9692 1 2 0 28.93543919315035 15.771662150227714 -2.1730430401261787 0 0 0
13313 1 2 0 27.543391220455533 14.977153802826091 -1.1995186353890462e-07 0 0 0
13263 1 2 0 25.95983105169204 12.30451830928157 -1.2555219079125888e-08 0 0 0
6818 1 1 0 32.21503185834661 11.426140959899707 -1.6334320909913085 0 0 0
9616 1 2 0 33.56184249790972 10.66545864295211 -2.1452048462964926 0 0 0
9618 1 2 0 32.34603121078914 12.948046108185533 -2.2730468405828774 0 0 0
6869 1 1 0 32.70457384070618 14.423143855971624 -1.5990704865797987 0 0 0
9701 1 2 0 31.36049074061838 15.278909760998092 -1.8837296094413392 0 0 0
9702 1 2 0 33.92601819104154 15.321855466181963 -2.2669435053436082 0 0 0
13319 1 2 0 33.027730787815194 14.198781194902875 -1.3223814219474916e-07 0 0 0
9617 1 2 0 36.10250757784981 10.987959496856911 -2.2485713369193037 0 0 0
6826 1 1 0 37.56204032646159 11.445752896382764 -1.6440499380734663 0 0 0
9631 1 2 0 38.07486021148592 12.900574058117805 -2.222350030145634 0 0 0
6873 1 1 0 37.887827567374295 14.436756640535002 -1.6427193645600349 0 0 0
6874 1 1 0 35.32672626356802 15.95831789474039 -1.6432161046855622 0 0 0
9707 1 2 0 36.432224225772785 14.899315912229307 -2.2222377863104428 0 0 0
9708 1 2 0 38.97899534449758 15.523868797491048 -2.220960181405472 0 0 0
13323 1 2 0 37.932347882484564 14.417294339764052 -1.0865758779850658e-07 0 0 0
6834 1 1 0 42.30721572967279 10.90866255345773 -1.6436636309597004 0 0 0
6876 1 1 0 42.54852915109021 13.970128021819495 -1.6438371825621774 0 0 0
9644 1 2 0 42.21137233337409 12.456260959893205 -2.227019317156233 0 0 0
9711 1 2 0 41.51704201134764 15.109102030914245 -2.225639994998953 0 0 0
9712 1 2 0 44.007575660391325 14.447432307585158 -2.2254496441475986 0 0 0
6878 1 1 0 45.264150098960876 15.327646893103584 -1.643503336445887 0 0 0
13326 1 2 0 42.51596234794533 13.935339356406864 -5.458352347715365e-08 0 0 0
13328 1 2 0 45.24586789644306 15.368026862548156 -3.706195030980044e-07 0 0 0
9659 1 2 0 47.44436085650278 11.988047591595663 -2.2307658918190216 0 0 0
9665 1 2 0 46.572890185192186 14.533617401572117 -2.2237602708554687 0 0 0
6846 1 1 0 47.71214760464487 13.508974607269806 -1.6438269095652136 0 0 0
9664 1 2 0 49.102303768651105 14.149589017993476 -2.2392138391641483 0 0 0
9662 1 2 0 51.666040931045224 13.960087757132694 -2.2533647399611625 0 0 0
6847 1 1 0 50.45284064300939 14.865614896561864 -1.6439547187963683 0 0 0
13296 1 2 0 47.73153078970431 13.467990623909257 -1.4411865837569527e-07 0 0 0
9660 1 2 0 52.757946653163195 11.58035867118202 -2.2342775227215323 0 0 0
6845 1 1 0 52.91582985537041 13.10735023636001 -1.6435349007764648 0 0 0
9663 1 2 0 54.25029061119508 13.859921937513748 -2.2314381464561546 0 0 0
9677 1 2 0 56.82720061995834 13.823946409722327 -2.229813657973558 0 0 0
6854 1 1 0 55.54999462199842 14.675303401143776 -1.644267658575962 0 0 0
9675 1 2 0 57.85898174363192 11.315037354834423 -2.227148734996169 0 0 0
11844 1 2 0 63.033889053748865 10.768071889702567 -2.2270992741089093 0 0 0
6855 1 1 0 58.014913389767045 12.853030125378117 -1.6442418458732961 0 0 0
9679 1 2 0 59.38794992483206 13.528579304055803 -2.235842899408272 0 0 0
6923 1 1 0 60.75400048743308 14.21878410763496 -1.6440964359311778 0 0 0
9785 1 2 0 61.95586105812777 13.262416514250047 -2.229520131917188 0 0 0
9784 1 2 0 60.901981110622856 15.760767480425477 -2.2207538802122615 0 0 0
8285 1 1 0 68.2339142389061 11.657884636603045 -1.6435913087470244 0 0 0
8279 1 1 0 63.156432923964594 12.30706222077144 -1.6440705723221503 0 0 0
8286 1 1 0 65.89816704348674 13.652649173501963 -1.6444892360538776 0 0 0
11846 1 2 0 64.52937654005761 12.975708275257976 -2.239989892742807 0 0 0
11855 1 2 0 67.10785611256574 12.702232501256326 -2.228973062852276 0 0 0
11857 1 2 0 66.02274184061696 15.193412250847764 -2.226415343929053 0 0 0
14729 1 2 0 63.14354166371966 12.281281530441445 -7.75859803527611e-08 0 0 0
8291 1 1 0 73.39310358330502 11.069855388084754 -1.6429405665035626 0 0 0
11865 1 2 0 72.26446059235914 12.101167165852708 -2.2421820837124002 0 0 0
11856 1 2 0 69.6663726138739 12.16989498686354 -2.243486203004454 0 0 0
8292 1 1 0 70.98076623907043 12.934120169623771 -1.6442300805217587 0 0 0
11867 1 2 0 70.93488933770743 14.467671887164911 -2.234314122532992 0 0 0
8322 1 1 0 71.15842729359508 15.984741588246873 -1.6433861127987757 0 0 0
14741 1 2 0 73.3563965638278 11.065377737088573 -1.4018436927122182e-07 0 0 0
14772 1 2 0 71.13170375367253 15.980593929009766 -5.784644090970111e-07 0 0 0
11866 1 2 0 74.82888805732874 11.569634463395666 -2.233972215511573 0 0 0
11875 1 2 0 77.40744459326794 11.352100797331977 -2.238798424209645 0 0 0
8297 1 1 0 78.72338539268962 10.564681707323407 -1.6438696961066877 0 0 0
8298 1 1 0 76.17974249446381 12.268884686996085 -1.6433819936614469 0 0 0
11877 1 2 0 76.15555824996673 13.800212754227223 -2.243255861282696 0 0 0
8321 1 1 0 76.33479886795581 15.319302441365968 -1.6429028811933382 0 0 0
11914 1 2 0 77.79286398222668 15.786232536319213 -2.218899559608407 0 0 0
14748 1 2 0 76.23347156935509 12.300803027460383 -3.5650950290055564e-07 0 0 0
11876 1 2 0 79.98902799720305 11.425373987815158 -2.227823463565368 0 0 0
11882 1 2 0 82.54920028115055 10.966150548731372 -2.2568673072983456 0 0 0
8302 1 1 0 81.41268325078096 11.983078837790966 -1.6445763224354693 0 0 0
11883 1 2 0 85.12132185329492 11.234331563942295 -2.1412696339865405 0 0 0
11884 1 2 0 81.62194437742271 13.506339735232364 -2.2274279927052154 0 0 0
11918 1 2 0 80.42338578254595 15.909653554859315 -2.236982167149367 0 0 0
8324 1 1 0 81.69245961528028 15.043944226350135 -1.644535308664955 0 0 0
11919 1 2 0 83.0664724991038 15.72361351876974 -2.233617625689204 0 0 0
8307 1 1 0 86.6255518821227 11.658265536427884 -1.63589066730788 0 0 0
11892 1 2 0 86.88359543255864 13.185743688208493 -2.2320564667954628 0 0 0
11921 1 2 0 85.71489841669023 15.717747534036743 -2.1918565483195347 0 0 0
8326 1 1 0 86.94963277978174 14.742145861253837 -1.6478783045439722 0 0 0
11922 1 2 0 88.38671938599825 15.350997437073401 -2.2161447695142975 0 0 0
14776 1 2 0 86.90854711945317 14.717901951652586 -2.3836965110333478e-07 0 0 0
11899 1 2 0 92.13469182388117 10.61464999396302 -2.233868118860812 0 0 0
8313 1 1 0 93.13307435877414 11.775794255802719 -1.5761142095711247 0 0 0
11902 1 2 0 94.67486069298334 11.306077859084047 -1.811467383077015 0 0 0
11903 1 2 0 93.32109246820016 13.301733843967535 -2.225238570934295 0 0 0
8329 1 1 0 94.30462296068747 14.535901759665142 -1.6481242487346508 0 0 0
11925 1 2 0 93.50646374182973 15.851427572560187 -2.205157672727283 0 0 0
9184 1 2 0 95.871205991125 14.801862441876018 -2.213221707702448 0 0 0
14763 1 2 0 92.6751661500197 11.932372013856627 -4.430777522653016e-07 0 0 0
14779 1 2 0 94.38115649727312 14.3997689236639 -6.257801032439824e-07 0 0 0
11905 1 2 0 97.08826893315876 10.713447007040093 -2.372125095806542 0 0 0
8333 1 1 0 98.35541176581415 11.331068220200617 -1.5229467617623587 0 0 0
9182 1 2 0 99.04067131543579 12.567975956172672 -2.3382165868681217 0 0 0
6540 1 1 0 99.66912942907439 13.925703048355478 -1.6445011003888446 0 0 0
9137 1 2 0 101.18379716153427 14.194207788712704 -2.221410173323906 0 0 0
6541 1 1 0 97.19233240897145 15.652093866208132 -1.6391164642327174 0 0 0
9181 1 2 0 98.64206940478186 15.07559274297083 -2.1780443265383287 0 0 0
12990 1 2 0 99.75554488805204 13.879182402617905 -3.3575103938836713e-07 0 0 0
9727 1 2 0 8.223735140385019 16.232711401982275 -2.2414117832527505 0 0 0
6887 1 1 0 8.241934001161962 17.767141193108635 -1.6416759459665629 0 0 0
9725 1 2 0 9.623818966747818 18.452531173848346 -2.202345931197554 0 0 0
9721 1 2 0 12.13273786876489 19.143196079111018 -2.244541073246573 0 0 0
6885 1 1 0 10.682227485453762 19.571107519367374 -1.6421298688128858 0 0 0
9726 1 2 0 10.345887793944186 21.055365005000002 -2.2633162837253997 0 0 0
13335 1 2 0 10.6648619856372 19.60336424744098 -5.572266274949443e-07 0 0 0
9689 1 2 0 13.278890052110055 16.79740407894137 -2.2112743144161677 0 0 0
9581 1 2 0 17.552785570076782 16.488654350012922 -2.139435804830849 0 0 0
6882 1 1 0 13.437908058745204 18.3584804669392 -1.6432566636048926 0 0 0
6883 1 1 0 18.22274794980105 17.91378910904301 -1.6511962328245497 0 0 0
9722 1 2 0 17.12784484393164 18.908016259713126 -2.299494009188876 0 0 0
9720 1 2 0 14.646616529157281 19.355376058184742 -2.1916409422742906 0 0 0
6884 1 1 0 16.08988122089632 19.96366668464998 -1.6408623430500997 0 0 0
9724 1 2 0 16.747079822722792 21.37359898883282 -2.202191296034347 0 0 0
6864 1 1 0 22.899364335356303 16.13627562590388 -1.5111745453966698 0 0 0
9723 1 2 0 19.632496509915185 18.487973914318914 -2.3092545334601566 0 0 0
6890 1 1 0 21.068335986749418 18.599779476928113 -1.5124667871625708 0 0 0
9694 1 2 0 21.53634038691316 17.039390897491074 -1.4553185116168534 0 0 0
6934 1 1 0 22.85094437552592 20.94300152094615 -1.6396210528409014 0 0 0
9733 1 2 0 22.26854568218371 19.49162435020367 -2.212059121484355 0 0 0
9693 1 2 0 24.059534973557543 17.024208340614116 -2.265158152703489 0 0 0
13340 1 2 0 20.810374854886707 19.221668694642826 -2.3535287141713902e-07 0 0 0
9691 1 2 0 26.481839283767343 16.30071706363293 -2.1993343787251627 0 0 0
6865 1 1 0 25.526938526507852 17.516727464782747 -1.6465099395485197 0 0 0
9695 1 2 0 25.996542938869652 19.015693641213304 -2.1971910990128345 0 0 0
9764 1 2 0 24.413909002711296 21.159624750397498 -2.1918377027655307 0 0 0
6909 1 1 0 25.907870509225837 20.60391612980254 -1.649661162287046 0 0 0
9763 1 2 0 27.19520660055079 21.55441008590614 -2.191631654446883 0 0 0
13315 1 2 0 25.533289142626266 17.582567452515423 -5.0635122756206255e-08 0 0 0
6870 1 1 0 30.33882299385881 16.507112198021165 -1.5840871789621813 0 0 0
9703 1 2 0 31.14034117622442 17.88653307079299 -2.18061520710298 0 0 0
6908 1 1 0 32.262930081937476 19.037947947949057 -1.6459630442486064 0 0 0
9762 1 2 0 33.845435227490924 18.983562866239627 -2.1838997498020167 0 0 0
9761 1 2 0 31.867152738461975 20.53140153021948 -2.2148243908569167 0 0 0
13320 1 2 0 30.02758573130196 16.86016733192357 -1.4886494170115627e-07 0 0 0
6877 1 1 0 40.3905109067952 16.161110986150064 -1.644661619237657 0 0 0
9709 1 2 0 35.86013813254547 17.450722606125552 -2.137136330925258 0 0 0
6915 1 1 0 35.42298190196569 18.979305206280426 -1.637271983744567 0 0 0
9713 1 2 0 40.65767544965416 17.694717391455914 -2.219104271670522 0 0 0
6918 1 1 0 40.624092761702556 19.262062708486038 -1.6428570886267027 0 0 0
9773 1 2 0 36.52971789400738 20.1386549709278 -2.1867294343506924 0 0 0
6919 1 1 0 37.95761479655828 20.888084721420938 -1.6422081475113945 0 0 0
9777 1 2 0 39.193712119966186 19.911633787763005 -2.15266055999622 0 0 0
13369 1 2 0 37.846311044767525 20.96974326160634 -1.599773469153866e-07 0 0 0
9714 1 2 0 45.25321432189367 16.867459095595503 -2.241289071271591 0 0 0
6898 1 1 0 45.48454021449744 18.388356195627637 -1.64172373363455 0 0 0
9778 1 2 0 41.85191812307237 20.245864191139002 -2.2026456609035256 0 0 0
6920 1 1 0 43.37438926670172 20.645415258881442 -1.641702825875819 0 0 0
9746 1 2 0 44.27256631518014 19.362149160710995 -2.1638098879630037 0 0 0
13348 1 2 0 45.5448428507492 18.329394570700956 -1.2642729530023153e-07 0 0 0
9666 1 2 0 50.6920195136996 16.382046451878196 -2.2327193967603516 0 0 0
9745 1 2 0 46.85758725094573 19.041822041852896 -2.2671751730899823 0 0 0
9743 1 2 0 49.42437082031407 18.646943684121407 -2.269656230574665 0 0 0
6897 1 1 0 50.74568244402726 17.915831060948765 -1.644473911380493 0 0 0
6899 1 1 0 48.26529515534288 19.607769605617285 -1.6408853450740817 0 0 0
9747 1 2 0 48.633066284610365 21.126055369532153 -2.142172093104188 0 0 0
13349 1 2 0 48.22268313871962 19.54283802992188 -8.596157382952229e-08 0 0 0
9744 1 2 0 52.034331236214285 18.747908284852663 -2.2265816168293933 0 0 0
9753 1 2 0 54.618840323282186 18.799909050917726 -2.2212452695779192 0 0 0
6904 1 1 0 53.30653842570819 19.61340257121517 -1.6439498993772863 0 0 0
9755 1 2 0 53.24134087449271 21.167946556234096 -2.2138749659340453 0 0 0
9678 1 2 0 55.5678128769824 16.22605833804737 -2.2222723550387475 0 0 0
6903 1 1 0 55.76521337448057 17.766640126187383 -1.644483777808582 0 0 0
9754 1 2 0 57.17087094181784 18.381173765361336 -2.2291775192570396 0 0 0
13353 1 2 0 55.7506343151863 17.728351646142738 -7.799249601674244e-08 0 0 0
6922 1 1 0 58.51545766006287 19.120510617717333 -1.6438997115086982 0 0 0
6924 1 1 0 60.993010537579124 17.30915139957525 -1.64456936655318 0 0 0
9782 1 2 0 59.75103357015711 18.210693600416544 -2.232582688685405 0 0 0
9786 1 2 0 62.33260608223427 18.05884559905441 -2.231409083087401 0 0 0
9783 1 2 0 58.60872464098486 20.666519412700758 -2.218179629927293 0 0 0
13372 1 2 0 58.524058244371574 19.14254727734157 -8.667873884471308e-08 0 0 0
8342 1 1 0 66.11749200399083 16.737329636638375 -1.6437972880587368 0 0 0
8343 1 1 0 63.73543307006046 18.684200902844484 -1.6442362585349997 0 0 0
11941 1 2 0 64.88934641331606 17.66328636840426 -2.221387001042852 0 0 0
11942 1 2 0 67.46917545628702 17.456554014208717 -2.2366118168631526 0 0 0
11943 1 2 0 63.969858933179594 20.219228473168695 -2.2185351521056536 0 0 0
14792 1 2 0 66.11338441109129 16.699198713057857 -1.488101447071139e-07 0 0 0
14793 1 2 0 63.729562525859194 18.708072733360396 -1.3763781206655083e-08 0 0 0
11915 1 2 0 72.59907452721204 16.47386663749632 -2.2436792042648253 0 0 0
8344 1 1 0 68.88361170958868 18.043094209393203 -1.6452836905410748 0 0 0
11916 1 2 0 70.03362035091423 17.02478830034997 -2.232537026921772 0 0 0
8323 1 1 0 73.92587122803111 17.218383400763617 -1.644679943680293 0 0 0
11917 1 2 0 73.88884961691913 18.753987093143703 -2.2382529672791875 0 0 0
8367 1 1 0 69.09174415418634 21.110495298708887 -1.6422994676200753 0 0 0
11944 1 2 0 69.14489583028738 19.566100090473515 -2.232547598326189 0 0 0
11960 1 2 0 72.73112354375792 21.232322537104302 -2.2174122938337035 0 0 0
8354 1 1 0 73.94215230306385 20.286183003109215 -1.643266496103454 0 0 0
14794 1 2 0 68.87464270585197 18.05846535991645 -4.949140483036699e-08 0 0 0
11913 1 2 0 75.20730379793925 16.366138856964696 -2.2316165541716013 0 0 0
8325 1 1 0 79.07036324350909 16.62868415316409 -1.6452091776766022 0 0 0
11920 1 2 0 78.90220830737225 18.138059750168274 -2.276692844040769 0 0 0
11959 1 2 0 75.28367187888193 20.968863030892987 -2.2705846551743614 0 0 0
11957 1 2 0 77.8304899409256 20.64122192662929 -2.282539665651729 0 0 0
8355 1 1 0 76.65061746589151 21.589461640587185 -1.6449585436177951 0 0 0
8353 1 1 0 78.95005934166015 19.641438361193174 -1.6267942546090028 0 0 0
14775 1 2 0 79.10256999547558 16.653547087392944 -6.040373532481598e-08 0 0 0
14803 1 2 0 78.75128307083894 19.551043609315904 -5.674296943416115e-07 0 0 0
8327 1 1 0 84.37521087668492 16.532112634304283 -1.6445633010725416 0 0 0
11923 1 2 0 84.25526908803467 18.08984408309616 -2.2096935404062448 0 0 0
11958 1 2 0 80.38208490872294 20.252240829637806 -2.0779045686404447 0 0 0
11962 1 2 0 82.86637779727094 20.53438587507452 -2.2606836943044226 0 0 0
8357 1 1 0 81.55007623740575 21.290771604416925 -1.6253817248245908 0 0 0
8356 1 1 0 84.11430285710246 19.643900973596832 -1.6464076147659277 0 0 0
14806 1 2 0 84.04808693034326 19.595962021012824 -2.0483554154999026e-08 0 0 0
11963 1 2 0 85.3792987611121 20.49478057958194 -2.243655922346815 0 0 0
8331 1 1 0 89.37141288613738 16.544262526657032 -1.6423355432169404 0 0 0
11928 1 2 0 88.74335501907532 17.969131268890774 -2.1962509050097467 0 0 0
11965 1 2 0 87.95389604187959 20.51573939337691 -2.2801934864906337 0 0 0
8359 1 1 0 86.66375036563068 21.29613048292638 -1.6434211167921848 0 0 0
8358 1 1 0 89.04147737432125 19.482987469360523 -1.638821363843533 0 0 0
11966 1 2 0 90.50689782283564 20.005418538731014 -2.1681596495760895 0 0 0
14781 1 2 0 89.39747589567867 16.464274369665752 -9.41656139121095e-08 0 0 0
14809 1 2 0 86.64967703779588 21.293844485266714 -4.7541308462405863e-07 0 0 0
14808 1 2 0 88.96080268054587 19.473295699493658 -2.42803991712465e-07 0 0 0
11926 1 2 0 90.91512300362042 16.434800075615836 -2.2238778878337233 0 0 0
8330 1 1 0 92.39214910593188 16.905439648920208 -1.6430841201142758 0 0 0
11927 1 2 0 92.92037530542284 18.348842324304286 -2.242443126553321 0 0 0
8362 1 1 0 91.36632187495171 21.311709714375368 -1.6351837989088551 0 0 0
11946 1 2 0 92.91324169170828 21.01998084358649 -2.1210218124036277 0 0 0
8345 1 1 0 93.72383146487608 19.655912591752383 -1.6403474396934064 0 0 0
11945 1 2 0 95.23981204518756 19.8052659120824 -2.2713092626732045 0 0 0
14780 1 2 0 92.34453940229817 16.92051927086973 -1.5115318984984603e-08 0 0 0
14812 1 2 0 91.2795781033239 21.413377157561897 -1.716587261912225e-07 0 0 0
6542 1 1 0 98.57161349631437 18.28087123417764 -1.6370177204127707 0 0 0
9183 1 2 0 97.4085402679899 17.212590095492708 -2.179353965798968 0 0 0
9179 1 2 0 100.15134507125134 18.281091930760038 -2.1923903104722586 0 0 0
8346 1 1 0 96.59721701305538 20.502242358691984 -1.6373248991343146 0 0 0
9185 1 2 0 97.9534857191319 19.72351413221044 -2.1320022622059924 0 0 0
6539 1 1 0 101.32682383629894 19.346801156742355 -1.6429886794266415 0 0 0
9180 1 2 0 100.8108914858454 20.84988257030676 -2.127160602902338 0 0 0
14796 1 2 0 96.47760965918886 20.520505484275088 -2.4747947643785857e-08 0 0 0
9798 1 2 0 8.981595198916402 23.316821174833787 -2.1569419596198043 0 0 0
6931 1 1 0 10.393627969266143 22.576826498096594 -1.6417676364081604 0 0 0
9795 1 2 0 11.80674067221655 23.298431856243912 -2.1468249099945824 0 0 0
9857 1 2 0 7.908705862405855 25.979983951878268 -2.1970060768931305 0 0 0
6970 1 1 0 9.467178969022445 26.212851455452896 -1.5929500784979105 0 0 0
9796 1 2 0 10.98051459292488 25.71203417107675 -2.1627420726680717 0 0 0
6929 1 1 0 12.31582940162396 24.811766428143706 -1.6406440528149069 0 0 0
13420 1 2 0 9.4355619558891 25.77063589484326 -2.786648423239803e-07 0 0 0
6975 1 1 0 7.432842342103829 22.92370166780958 -1.6372826435855499 1 0 0
13381 1 2 0 10.413109779769034 22.54286108383037 -1.1280292274803555e-08 0 0 0
9792 1 2 0 16.371385572380564 23.822060210621906 -2.1719449141192118 0 0 0
6928 1 1 0 17.505670922405947 22.736812239749597 -1.6427028649048976 0 0 0
9794 1 2 0 13.904439504569586 25.133275515926083 -2.180929988690478 0 0 0
6930 1 1 0 15.533128332088374 25.14666726627455 -1.6430250038129572 0 0 0
9797 1 2 0 16.60435882230663 26.32269750371212 -2.186710892669561 0 0 0
13378 1 2 0 17.61348253828107 22.73865827647752 -9.246146256465363e-08 0 0 0
13380 1 2 0 15.42847098870699 25.2242131780392 -5.5561088198540683e-08 0 0 0
13421 1 2 0 17.998215348787753 26.898411698273915 -1.2014079686549662e-07 0 0 0
9793 1 2 0 19.089846424202626 23.000434746578787 -2.192306479999167 0 0 0