LAMMPS data file via write_data, version 2 Aug 2023, timestep = 1498, units = metal

15720 atoms
2 atom types

6.943308198318515 198.43686243099526 xlo xhi
5.5522756532662045 173.0696964054842 ylo yhi
-100 100 zlo zhi

Masses

1 28.085
2 15.999

Atoms # full

6866 1 1 0 7.298192651227341 5.833994213558698 -1.649737471006078 0 0 0
9678 1 2 0 11.08891635141506 6.780772894894988 -2.2056664775289665 0 0 0
6864 1 1 0 12.446807589953135 7.536971527192444 -1.6433786222508653 0 0 0
9672 1 2 0 8.130594720266176 9.352999660475218 -2.186611364462975 0 0 0
9674 1 2 0 12.54569898424253 9.06982692388138 -2.2317719568006593 0 0 0
6861 1 1 0 8.945117675117384 10.649948764983623 -1.636611303123748 0 0 0
9671 1 2 0 10.441396528343049 10.666275617600974 -2.2945002374986556 0 0 0
6862 1 1 0 11.942566015125907 10.477298394962203 -1.646094981188059 0 0 0
13416 1 2 0 7.380577260630869 5.8259226105359545 -2.3822274331332013e-07 0 0 0
13411 1 2 0 9.06307255924923 10.644418037770883 -2.676946632425366e-07 0 0 0
9679 1 2 0 13.813831864996416 6.798533718148947 -2.2195084816113475 0 0 0
6876 1 1 0 15.320950638898173 7.004603475116751 -1.5676945534550262 0 0 0
9694 1 2 0 16.20312362200517 8.13588194242346 -2.3525424601484346 0 0 0
6874 1 1 0 17.442922938625724 8.973896332915286 -1.6574298135872472 0 0 0
9693 1 2 0 17.002309570798207 10.497648726565012 -2.165884303040563 0 0 0
9698 1 2 0 16.23890847336669 5.647888581506555 -1.6750351078581287 0 1 0
6878 1 1 0 20.22425872458757 7.594063337789659 -1.6395537060231158 0 0 0
9701 1 2 0 20.50410395474864 6.094865872797111 -2.2593947920939543 0 0 0
9695 1 2 0 18.86215908074437 8.320287704920668 -2.234322810922262 0 0 0
6879 1 1 0 22.55461826462045 9.587185940834186 -1.6421525826963026 0 0 0
9700 1 2 0 21.54502875698247 8.415162859433481 -2.16615082232046 0 0 0
9702 1 2 0 22.009755884046434 11.020921387416013 -2.258918262975435 0 0 0
9711 1 2 0 25.92254038444081 7.397586746549206 -2.234559579723128 0 0 0
6889 1 1 0 26.257890271103207 5.90127387043919 -1.6447358838740875 0 0 0
9703 1 2 0 24.034470943252696 9.293336367959752 -2.2777655257955827 0 0 0
6884 1 1 0 25.492811678261702 8.865158510284564 -1.646622969760738 0 0 0
9710 1 2 0 26.574238451720817 9.93568825140816 -2.2526884905604936 0 0 0
6885 1 1 0 27.5565599895252 11.094581277324417 -1.6458153867998329 0 0 0
9713 1 2 0 29.05656118007643 10.823166984433787 -2.2394847515248526 0 0 0
13439 1 2 0 26.27547860987442 5.875198182879616 -3.836477312729671e-07 0 0 0
13434 1 2 0 25.472923191364902 8.868493091261906 -5.482930439956605e-08 0 0 0
13435 1 2 0 27.541223064082374 11.105679157686826 -7.390525057383375e-08 0 0 0
9724 1 2 0 30.311423061475338 6.290805807711939 -2.2147535170249872 0 0 0
6892 1 1 0 31.328200570109082 7.4699748375581585 -1.646057390465025 0 0 0
9725 1 2 0 32.84782514507386 7.183728994338866 -2.2251426553264126 0 0 0
6900 1 1 0 34.39127919005185 7.217107561101205 -1.6456940751371851 0 0 0
9722 1 2 0 30.902751890643653 8.954816003482234 -2.2346888716954414 0 0 0
6891 1 1 0 30.538760982791633 10.45129203447924 -1.6448531828832658 0 0 0
13450 1 2 0 34.37598487161387 7.227620403240181 -7.16009303154861e-07 0 0 0
9739 1 2 0 35.167564129497244 5.884888970279412 -2.2276896562153228 0 0 0
6901 1 1 0 40.41296491355822 5.929710323389271 -1.6455573421142713 0 0 0
9731 1 2 0 39.97598837442325 7.414512567171775 -2.227715344843744 0 0 0
9729 1 2 0 35.19283024592315 8.540354752304788 -2.2245598229792343 0 0 0
6894 1 1 0 36.37519462738587 9.541955660297807 -1.6462414898570643 0 0 0
9727 1 2 0 37.829283869466316 9.0166891547459 -2.224772672291617 0 0 0
6895 1 1 0 39.36545655970873 8.838681858819607 -1.6460535845115276 0 0 0
9730 1 2 0 40.25233008832834 10.103615608278242 -2.2258673009282464 0 0 0
9728 1 2 0 36.10226249662818 11.065768352826503 -2.222817296444513 0 0 0
13444 1 2 0 36.377690264198506 9.53575775194137 -5.353672867944009e-08 0 0 0
9751 1 2 0 44.34968028371789 6.344930572701674 -2.2342232301876144 0 0 0
6908 1 1 0 45.323503562325186 7.536014740696681 -1.6457088886626177 0 0 0
9749 1 2 0 44.807235057947345 9.008113569782674 -2.216189542223434 0 0 0
9735 1 2 0 42.77433355614515 10.84635470044942 -2.219232383768841 0 0 0
6907 1 1 0 44.28195581700014 10.479052552293702 -1.6460593245120165 0 0 0
13458 1 2 0 45.318508629552035 7.560058140841496 -3.95880700600923e-07 0 0 0
13457 1 2 0 44.289164667377165 10.448689980522914 -1.5026256368446204e-08 0 0 0
9752 1 2 0 46.819224038493196 7.1414382839113575 -2.221724249846901 0 0 0
6917 1 1 0 48.31087302725419 6.732090603776772 -1.6456814368728014 0 0 0
9757 1 2 0 49.29602999142274 7.915645719406861 -2.23233760009409 0 0 0
6911 1 1 0 50.29457654343651 9.086712279251888 -1.6456677662357244 0 0 0
9755 1 2 0 51.7812061346477 8.676839773467593 -2.226549503248467 0 0 0
9756 1 2 0 49.842790148732526 10.573526298138919 -2.2238778863818274 0 0 0
13467 1 2 0 48.31688155401073 6.701037991288229 -9.263071660439289e-08 0 0 0
13461 1 2 0 50.27730493404646 9.112194361657126 -8.40331323576368e-08 0 0 0
9759 1 2 0 53.79950858310182 6.856406573096813 -2.222358200637256 0 0 0
6912 1 1 0 53.280527138289955 8.319672299170675 -1.6454744667469585 0 0 0
9758 1 2 0 54.24644496226554 9.51485976045416 -2.2361859457141473 0 0 0
6914 1 1 0 55.22019961250731 10.701436992509986 -1.6455911828290857 0 0 0
9763 1 2 0 56.71757023078697 10.359535412920208 -2.23495498923377 0 0 0
13462 1 2 0 53.2838809977728 8.299541748898813 -1.4782013761395812e-08 0 0 0
6924 1 1 0 59.35275955770706 7.149453392167072 -1.6459837013295933 0 0 0
9776 1 2 0 58.43543792313694 5.904515377721321 -2.2267157428431137 0 0 0
9778 1 2 0 60.89681642362698 7.0056484058649495 -2.2194780848788116 0 0 0
8406 1 1 0 62.404738685490194 6.633478651717916 -1.646231378149906 0 0 0
9774 1 2 0 58.715055348212324 8.557079034186343 -2.2297770100080134 0 0 0
6922 1 1 0 58.21374729016902 10.015045175945728 -1.6453071942884145 0 0 0
14956 1 2 0 62.39498341120223 6.64808210985748 -5.426585781219124e-07 0 0 0
13472 1 2 0 58.20521722539678 10.005497661279954 -8.669072539437673e-08 0 0 0
12036 1 2 0 63.52974912102161 7.706928046380806 -2.220976550330443 0 0 0
12041 1 2 0 67.64462920875965 7.24407065896439 -2.208266466839713 0 0 0
8411 1 1 0 68.27462565244196 5.830974637414669 -1.6446683257360177 0 0 0
8404 1 1 0 64.3486163150357 9.030333217574473 -1.6458906792730055 0 0 0
12037 1 2 0 65.90231807212668 9.15319162086072 -2.2070292054278045 0 0 0
8407 1 1 0 67.42077677909899 8.779166386800831 -1.648200406132944 0 0 0
12040 1 2 0 68.63667522946808 9.77480485707023 -2.22896076561329 0 0 0
12035 1 2 0 63.548709240718466 10.346780009744169 -2.2299951320596194 0 0 0
14954 1 2 0 64.35175399992409 8.991862492570835 -4.6669537213362446e-08 0 0 0
14961 1 2 0 68.28158693774239 5.784247709414876 -9.299876665536432e-08 0 0 0
12048 1 2 0 69.80482656855082 5.825882789929215 -2.248708700442436 0 0 0
8417 1 1 0 71.32756373045612 5.6705834095086525 -1.6489762079584367 0 1 0
12055 1 2 0 72.23598868276031 6.940705981242481 -2.2496029717711243 0 0 0
8416 1 1 0 73.54543007483315 7.728166182088208 -1.5788644878533953 0 0 0
12053 1 2 0 74.09197756226848 9.137606445137923 -2.265478878548332 0 0 0
8415 1 1 0 74.52827943638975 10.628664412138347 -1.648061724466417 0 0 0
14967 1 2 0 71.36506710833642 5.70887380305718 -3.095846327666288e-08 0 1 0
14966 1 2 0 73.17079199358783 8.027707294295201 -8.026711252273566e-08 0 0 0
12056 1 2 0 74.77565836272858 6.675174334167029 -1.7832507429970403 0 0 0
8424 1 1 0 76.35260157839978 6.284008235149629 -1.581180034033655 0 0 0
12065 1 2 0 77.36506510582439 7.427612739663368 -2.2503734730315093 0 0 0
8422 1 1 0 78.4148382354186 8.589624775768947 -1.6480136866206536 0 0 0
12064 1 2 0 78.17154690260156 10.14287786005055 -2.169960789606137 0 0 0
12066 1 2 0 79.90621525165464 8.301841139998274 -2.2675198591525705 0 0 0
14965 1 2 0 74.60699756747817 10.536767136445695 -3.5860106967583055e-07 0 0 0
14974 1 2 0 76.79686050280769 6.153759893103936 -9.111059667836472e-08 0 0 0
14972 1 2 0 78.36918602458346 8.538029915320404 -2.711449088894326e-07 0 0 0
8427 1 1 0 81.35520066419532 7.843011987480177 -1.6464535694671147 0 0 0
12073 1 2 0 81.43493350826012 6.273780147328724 -2.1573457234470057 0 0 0
8439 1 1 0 85.01086175919995 5.743864310255542 -1.646842150494575 0 0 0
12089 1 2 0 85.4766140245304 7.240131632524314 -2.25071700496941 0 0 0
8428 1 1 0 83.48817919979737 10.060937751837686 -1.5633170129502796 0 0 0
12072 1 2 0 82.51223683572927 8.89245228431192 -2.2499569308154954 0 0 0
12075 1 2 0 85.09251524121606 9.72861897422063 -1.6752086331063851 0 0 0
14977 1 2 0 81.39471103057018 7.873135414296454 -1.1099099470185684e-07 0 0 0
12097 1 2 0 90.96486693088936 6.631335226036242 -2.2495893520816503 0 0 0
8436 1 1 0 86.23013718935368 8.556305999643213 -1.561929938206948 0 0 0
12088 1 2 0 87.604063965648 9.252645403866596 -2.24478456345285 0 0 0
8437 1 1 0 88.36942303867724 10.591137336855919 -1.5848307420358652 0 0 0
12091 1 2 0 89.79865141108682 11.102500209703408 -2.2828480414474344 0 0 0
14986 1 2 0 86.63356978623302 8.178521397182795 -4.175766961071211e-07 0 0 0
8441 1 1 0 92.28339518690505 7.418602261272548 -1.6189882421293962 0 0 0
8449 1 1 0 95.24175572338046 7.101255881403116 -1.6279086153856583 0 0 0
12098 1 2 0 93.69501681089189 6.621904324821203 -1.9767329381591408 0 0 0
12108 1 2 0 96.21129421258365 5.9604541012113526 -2.2814009279286416 0 0 0
12094 1 2 0 92.53863903281669 8.908197200787203 -2.289182891874036 0 0 0
8440 1 1 0 93.3156872068345 10.228473914113938 -1.6399364121721107 0 0 0
12107 1 2 0 95.91619468931113 8.438650302731148 -2.293324511195974 0 0 0
8448 1 1 0 96.19641190419557 9.928136850094281 -1.6436410866467652 0 0 0
12096 1 2 0 94.82302315400098 10.715631875968956 -2.142303207189335 0 0 0
14999 1 2 0 95.38464152148981 7.251024542986735 -5.313621527484622e-07 0 0 0
14998 1 2 0 96.30812710286803 9.976796785868837 -4.938779486604943e-07 0 0 0
6580 1 1 0 101.19354399660952 6.239606449960725 -1.6470266324113916 0 0 0
9225 1 2 0 100.73174834838092 7.753307259551577 -2.064594257001058 0 0 0
9227 1 2 0 100.40215680703379 10.32381047035982 -2.2572872774749455 0 0 0
6581 1 1 0 101.42418678105663 9.177100934835654 -1.627278954905731 0 0 0
12105 1 2 0 97.60662510207884 10.500463516058913 -2.2787884850983 0 0 0
8446 1 1 0 99.03774161033002 11.056172858520618 -1.6408597558563116 0 0 0
9223 1 2 0 102.66903883865147 5.727710684707349 -2.2100827030890633 0 1 0
13130 1 2 0 101.2394149443264 6.094870133764397 -3.975939101949779e-07 0 0 0
14996 1 2 0 99.02554862076032 10.902075412244082 -1.0958401130466893e-07 0 0 0
9673 1 2 0 8.06057009241259 11.922155842621542 -2.1795085568027353 0 0 0
6867 1 1 0 8.2143977504029 13.463964975922076 -1.634860380209775 0 0 0
9683 1 2 0 9.568350992206776 14.065422851734963 -2.31008613189548 0 0 0
6869 1 1 0 10.789937703606002 14.937729777010606 -1.6484832454314136 0 0 0
9685 1 2 0 12.190519195518041 14.316153023855394 -2.225346019181383 0 0 0
9687 1 2 0 10.575409093319028 16.41281582990968 -2.3044277697265367 0 0 0
13417 1 2 0 8.340389892537697 13.521082544379574 -2.4303454825262674e-07 0 0 0
9675 1 2 0 12.878509410207009 11.687066934001372 -2.239434146336854 0 0 0
6875 1 1 0 17.8036604714434 11.84102783745935 -1.633964019174114 0 0 0
6868 1 1 0 13.227948728843112 13.1796906527874 -1.6442746914689779 0 0 0
6877 1 1 0 16.04178738845814 14.272106530290444 -1.6491071140528497 0 0 0
9686 1 2 0 14.69371726181974 13.55658234696798 -2.255676431317746 0 0 0
9696 1 2 0 17.270667322312914 13.297233063273834 -2.2353300158218428 0 0 0
9699 1 2 0 16.007941547960428 15.832078844278046 -2.2141159249349407 0 0 0
13425 1 2 0 17.715525120818313 11.97320243704326 -4.06551893490612e-07 0 0 0
13427 1 2 0 16.069407347211182 14.31880926127927 -3.237218023166035e-07 0 0 0
9697 1 2 0 19.319698742163116 11.385165933031193 -2.114203631434207 0 0 0
6880 1 1 0 20.789656190148385 11.928455060589503 -1.6371823985152236 0 0 0
9704 1 2 0 20.819907756616505 13.411247736150449 -2.3106816117850846 0 0 0
6886 1 1 0 21.234586137453775 14.839169312697306 -1.6482006349370633 0 0 0
9714 1 2 0 22.727050154066795 15.051829881863272 -2.277923553245102 0 0 0
9715 1 2 0 20.132827582754818 15.902833380596803 -2.2339162624852107 0 0 0
13436 1 2 0 21.263096168832877 14.87570275049761 -4.358364453427644e-08 0 0 0
9712 1 2 0 27.042823927794945 12.520399326121197 -2.275708132407709 0 0 0
9716 1 2 0 25.29375000280703 14.461026962922718 -2.2624156388188887 0 0 0
6888 1 1 0 26.746412032248987 13.997392977389165 -1.6433443409077513 0 0 0
9718 1 2 0 27.916278603495265 15.012495651792646 -2.181545377986014 0 0 0
6887 1 1 0 24.165836562783454 15.473976471766646 -1.6431853757271404 0 0 0
6937 1 1 0 28.59548785776328 16.40812190454017 -1.6435718187972947 0 0 0
13438 1 2 0 26.715655345243174 13.958858093792742 -6.146605215347065e-08 0 0 0
9723 1 2 0 31.554655193768376 11.611107128993886 -2.2295906427408223 0 0 0
9733 1 2 0 33.960622694373036 12.653957957214406 -2.236856466820219 0 0 0
9745 1 2 0 31.869126032738702 14.308210935832735 -2.247591879786344 0 0 0
6904 1 1 0 32.44198304129916 12.874521254656818 -1.6472491288978834 0 0 0
9796 1 2 0 30.119678972646305 16.38855803543097 -2.2597010133444773 0 0 0
6936 1 1 0 31.536210249226865 15.808925067118434 -1.6398401143663417 0 0 0
13454 1 2 0 32.42093100662614 12.889968734739984 -5.289747799070524e-08 0 0 0
6896 1 1 0 35.486125057599786 12.486588371034749 -1.6452505327485225 0 0 0
9732 1 2 0 36.35513997387167 13.758053102622894 -2.2303166141565622 0 0 0
6898 1 1 0 37.2869518424374 14.992075541655158 -1.645904397241065 0 0 0
9736 1 2 0 38.814170821837074 14.677508201309186 -2.2145434750503568 0 0 0
6899 1 1 0 40.30754286446951 14.237720106556935 -1.6462067784118128 0 0 0
9737 1 2 0 36.66356087881819 16.433381358275135 -2.196909344398582 0 0 0
13446 1 2 0 35.49258051888983 12.481135167799064 -1.1251127986719485e-07 0 0 0
6897 1 1 0 41.27818764001956 11.261761857567091 -1.6459904165963812 0 0 0
9734 1 2 0 40.78249734204288 12.744634348591319 -2.210487519803907 0 0 0
9750 1 2 0 45.25466409774026 11.678053889190931 -2.2283152096651406 0 0 0
6921 1 1 0 46.322980888894726 12.791369723780146 -1.645689302350632 0 0 0
9773 1 2 0 45.97043166885967 14.301691087040703 -2.225852256650084 0 0 0
6942 1 1 0 42.445436360364944 16.472625534791913 -1.6453280239083317 0 0 0
9738 1 2 0 41.342336741403244 15.389299519917186 -2.2260902781394614 0 0 0
9803 1 2 0 43.906469931331756 15.97955380389149 -2.2216120561122676 0 0 0
6941 1 1 0 45.431246029767 15.757221811635267 -1.6454555798635642 0 0 0
6913 1 1 0 49.302760578410584 12.030681499448075 -1.645581537699213 0 0 0
9761 1 2 0 47.78876235122966 12.314705013505666 -2.2260865761372783 0 0 0
6915 1 1 0 51.262673177367 14.40494729558549 -1.6456550375455181 0 0 0
9760 1 2 0 50.2132350436258 13.275838618374976 -2.2300081171736195 0 0 0
9765 1 2 0 50.91828160698458 15.914548527269684 -2.2283019442567165 0 0 0
13463 1 2 0 49.32372745200032 12.011117476209769 -7.549944366682315e-08 0 0 0
9762 1 2 0 54.72890860613455 12.165912105611556 -2.2321830617081813 0 0 0
6916 1 1 0 54.22496300751117 13.624865634947774 -1.6453228412812742 0 0 0
9764 1 2 0 52.72658334046934 13.945446912757006 -2.2352809991015663 0 0 0
9766 1 2 0 55.18129610218017 14.823284055163827 -2.2396841906784988 0 0 0
6956 1 1 0 56.149088098072646 16.010821497153007 -1.6455148071269132 0 0 0
9828 1 2 0 57.64376293619339 15.69297524969399 -2.2448431228617096 0 0 0
9775 1 2 0 59.21009529932544 11.179394890975574 -2.2411199454717754 0 0 0
9832 1 2 0 61.64682513852511 12.19725110546726 -2.2424610429814997 0 0 0
6958 1 1 0 60.129482143031424 12.403489032775244 -1.6457017277026336 0 0 0
8405 1 1 0 63.13257095836289 11.824043835240563 -1.6452467634048558 0 0 0
9830 1 2 0 59.54458543171185 13.822945951463005 -2.23953381066583 0 0 0
6957 1 1 0 59.11827514949485 15.29564653931475 -1.6455833205465955 0 0 0
9831 1 2 0 60.16927912181338 16.4062291557965 -2.2455439518196894 0 0 0
13508 1 2 0 60.11529458611531 12.408557436199535 -3.7342059496849383e-08 0 0 0
12042 1 2 0 68.15015472233527 12.296323469861303 -2.0059724334032003 0 0 0
12038 1 2 0 64.21462012210075 12.91240305884362 -2.240657952892286 0 0 0
8410 1 1 0 64.99636017985353 14.230458189559988 -1.6482795678784523 0 0 0
12044 1 2 0 66.51901254580221 14.308783804431123 -2.281008139509209 0 0 0
8409 1 1 0 67.9665272770784 13.881547079972059 -1.626180763948938 0 0 0
12046 1 2 0 64.20202329971441 15.547103512788286 -2.2226773855080117 0 0 0
14960 1 2 0 65.01644850953093 14.199107110868589 -1.976024285889436e-07 0 0 0
8408 1 1 0 69.30263181983835 11.182528401075011 -1.61717346302727 0 0 0
12043 1 2 0 70.73945433081353 11.774610467370922 -2.23099643206759 0 0 0
8414 1 1 0 72.1285678931545 12.507219408780298 -1.646816688817389 0 0 0
12051 1 2 0 73.3277559500729 11.565739226341714 -2.232331938637505 0 0 0
12045 1 2 0 69.23520019487457 14.744685529632914 -2.254236377857907 0 0 0
12052 1 2 0 72.60961278890389 14.001959310430959 -2.2089617397643297 0 0 0
8421 1 1 0 69.97865605209536 16.09536843388622 -1.6434265599409368 0 0 0
12061 1 2 0 71.53408652985186 16.33669530741602 -2.1380794922003883 0 0 0
8420 1 1 0 72.89968986897242 15.543142216583853 -1.6348444222818805 0 0 0
12062 1 2 0 74.20196619757394 16.429381796699648 -2.207801412266418 0 0 0
14964 1 2 0 72.02888319770395 12.552818418861873 -5.811850654368284e-07 0 0 0
14971 1 2 0 69.95892410810197 16.03617418385058 -3.3953657308092406e-08 0 0 0
14970 1 2 0 73.07156659825667 15.44111132903955 -8.463176523339577e-08 0 0 0
12054 1 2 0 75.91678970688736 11.36270561934877 -2.200834375165365 0 0 0
8423 1 1 0 77.48279798154653 11.555786094627225 -1.6436744799081375 0 0 0
12067 1 2 0 78.31231231141876 12.91525877260598 -2.2088018631828232 0 0 0
8430 1 1 0 79.1349043562688 14.283674242953637 -1.6320265738832411 0 0 0
12079 1 2 0 78.36505330658238 15.67550989924279 -2.0908071529224586 0 0 0
14973 1 2 0 77.46000335332484 11.645014207171398 -1.002788897476659e-07 0 0 0
12074 1 2 0 83.49016390219157 11.559297629844474 -2.275412771983712 0 0 0
12078 1 2 0 80.66183007279167 14.608863024194934 -2.215808135988761 0 0 0
12076 1 2 0 83.11468671778717 14.06605073928333 -2.231264065500027 0 0 0
8429 1 1 0 84.16225032917308 12.960964581575869 -1.6589347893188693 0 0 0
12077 1 2 0 85.59357484900995 13.566983578671076 -2.270229628510619 0 0 0
8431 1 1 0 82.11570772974528 15.204223567477857 -1.642303253471186 0 0 0
12080 1 2 0 82.82352574633751 16.61016432252796 -2.2107841705481115 0 0 0
14981 1 2 0 81.99013438715461 15.326850726840602 -2.3395867677252584e-07 0 0 0
12090 1 2 0 87.37385161341454 11.87670459237074 -1.7616670640771788 0 0 0
8442 1 1 0 90.99974755829442 12.057640516734816 -1.6410011663965842 0 0 0
8438 1 1 0 87.10121618594914 13.48660689967122 -1.582545102144799 0 0 0
12092 1 2 0 88.3120450320449 14.409579740095067 -2.2836464440064255 0 0 0
8462 1 1 0 89.38590826253856 15.484833826420807 -1.55670555102632 0 0 0
12124 1 2 0 90.94347711550039 15.966236963513339 -2.0349365178484944 0 0 0
12099 1 2 0 91.27396549620151 13.584673854722025 -2.2384099517407074 0 0 0
14988 1 2 0 86.97546930172264 13.938943802510465 -3.721612975261526e-08 0 0 0
15012 1 2 0 89.5303998905068 14.923460427447038 -2.0412974536209844e-08 0 0 0
12095 1 2 0 92.41709956421218 11.458188843892078 -2.1786657899891075 0 0 0
8461 1 1 0 92.14896339266133 14.884955995975478 -1.6231985804438689 0 0 0
12125 1 2 0 93.65274149037498 15.34928532251425 -2.200112947853889 0 0 0
12127 1 2 0 96.2338953200547 16.583090633150025 -2.1629997080658203 0 0 0
8464 1 1 0 94.59251996620542 16.65662863244059 -1.6494979288037201 0 0 0
15011 1 2 0 92.39637287799874 14.668828948258438 -1.0669703688154624e-08 0 0 0
15014 1 2 0 94.66476173482567 16.665492706524724 -1.2770150719623768e-07 0 0 0
12104 1 2 0 99.07136435286168 12.633361158454344 -2.099104661174807 0 0 0
8447 1 1 0 99.87706308891948 13.99453570865742 -1.630582982111795 0 0 0
9218 1 2 0 101.46004403712186 13.7758157675973 -2.212626666532065 0 0 0
8463 1 1 0 97.88127428718558 16.48780975203223 -1.645408411711747 0 0 0
12106 1 2 0 98.82617920854811 15.189241053889663 -2.1820861433109497 0 0 0
14997 1 2 0 100.0061988199959 14.21221671469782 -8.1951049977208e-08 0 0 0
6977 1 1 0 7.187796371360005 18.18068231748843 -1.6037026169343542 0 0 0
9856 1 2 0 8.723882497378531 18.342897718031136 -2.2472510197833935 0 0 0
6974 1 1 0 10.21368763808647 17.862501155237133 -1.6420354263411432 0 0 0
9855 1 2 0 11.596442890606795 18.661197660640507 -2.067075820142686 0 0 0
9900 1 2 0 7.7861427940991526 21.454309552967377 -2.2525146072904882 0 0 0
9859 1 2 0 10.721480931097924 21.002032458448873 -2.227148230176434 0 0 0
7003 1 1 0 9.324281799203499 21.69847032212851 -1.6414382105927894 0 0 0
6976 1 1 0 12.04296604946101 20.186495365189973 -1.6207146381436321 0 0 0
13527 1 2 0 7.4102979251083365 17.90194589158658 -4.812806940335428e-07 0 0 0
13553 1 2 0 9.279070785744185 21.48643656812277 -1.1724761385953327e-07 0 0 0
13526 1 2 0 12.132220672333055 20.478402300864442 -2.684871886756175e-07 0 0 0
6928 1 1 0 16.468647911793674 17.32561751496889 -1.6454986445639361 0 0 0
9782 1 2 0 17.988448097633743 17.511793920556435 -2.251170149167809 0 0 0
9784 1 2 0 15.57812226411115 18.615828609882634 -2.1982765004222413 0 0 0
9857 1 2 0 13.58701859559408 20.4545791312581 -2.212645827280458 0 0 0
6975 1 1 0 15.142261049640586 20.137333320824705 -1.6500037069814093 0 0 0
9858 1 2 0 16.2492365579831 21.28304024839255 -2.179230132189094 0 0 0
6927 1 1 0 19.48956820979129 17.295752250668357 -1.6439383095182718 0 0 0
9783 1 2 0 20.35267442615214 18.543834747809743 -2.248377914177732 0 0 0
9788 1 2 0 22.877408492654393 19.26783231771544 -2.2801008466498405 0 0 0
6932 1 1 0 21.40441549166246 19.641826801642804 -1.6473309838066381 0 0 0
9790 1 2 0 20.98069384663207 21.092022843151554 -2.2627297035765808 0 0 0
13477 1 2 0 19.48451405481076 17.265077083828388 -4.3178727021659387e-07 0 0 0
13482 1 2 0 21.400228673353002 19.64777833703419 -6.479674453089112e-10 0 0 0
9717 1 2 0 24.419911009670834 16.98078327105906 -2.225457583105013 0 0 0
6931 1 1 0 24.161363692260526 18.48770677624078 -1.6361188429127471 0 0 0
9789 1 2 0 25.480333557951464 19.28310830407265 -2.173629407044807 0 0 0
6962 1 1 0 27.01552166775984 19.027467329929728 -1.6459382695758074 0 0 0
9798 1 2 0 27.763417160925417 17.692037108642637 -2.2619274479867926 0 0 0
9837 1 2 0 27.71028911095417 20.34872754779584 -2.292704341648516 0 0 0
6986 1 1 0 28.17692417982829 21.782569030488787 -1.646219489195914 0 0 0
13512 1 2 0 27.07643889498322 18.97171669547096 -2.2268472160899163e-07 0 0 0
9797 1 2 0 32.687762699758245 16.883151030525266 -2.1186736414029275 0 0 0
6940 1 1 0 33.132619755374336 18.407215202006903 -1.6401556179622274 0 0 0
9802 1 2 0 31.976877340697104 19.4984448605869 -2.2069673012752515 0 0 0
9800 1 2 0 34.718340024152866 18.47216383897036 -2.1973029532009725 0 0 0
9873 1 2 0 29.791804061493515 21.65363284811916 -2.136906532209288 0 0 0
6987 1 1 0 31.21078056070152 20.893237146434075 -1.6195855490358484 0 0 0
9875 1 2 0 32.32514333700202 22.012691583952492 -2.0826687253314677 0 0 0
13490 1 2 0 33.18672719797553 18.571618464583004 -2.5239499045628542e-08 0 0 0
6939 1 1 0 36.211612236528055 17.948048160752414 -1.6485476134812547 0 0 0
9801 1 2 0 37.35608564302357 19.011953247704227 -2.2198129050121262 0 0 0
9848 1 2 0 40.036729864828494 19.49400590205665 -2.198117603921181 0 0 0
6970 1 1 0 38.56207240378797 19.987411831611485 -1.6443261977360335 0 0 0
9850 1 2 0 38.39819035334716 21.51382606598676 -2.2484242292033545 0 0 0
13489 1 2 0 36.206870045298714 17.924666758569874 -4.995185565591093e-08 0 0 0
13520 1 2 0 38.5162877022568 19.992796723866388 -1.5622099210710134e-07 0 0 0
9804 1 2 0 46.330085791725836 17.016340475321794 -2.2287721848085176 0 0 0
9805 1 2 0 42.181676686094725 17.999226332762955 -2.22618692113302 0 0 0
6969 1 1 0 41.59217610027166 19.434113301065224 -1.6460212941315153 0 0 0
9849 1 2 0 42.469503344442366 20.728354011623036 -2.22171661012498 0 0 0
6989 1 1 0 43.6650787990613 21.734543368459153 -1.6448493634216717 0 0 0
9876 1 2 0 45.09465495378095 21.1441966605322 -2.2067603059134866 0 0 0
13539 1 2 0 43.58213758029755 21.752574016649437 -1.7428805228209067e-07 0 0 0
6943 1 1 0 50.39809891367441 17.374245360771614 -1.6453652749039873 0 0 0
6944 1 1 0 47.43097958783519 18.102721470335723 -1.6456418511699242 0 0 0
9808 1 2 0 47.200072345012664 19.633318339076364 -2.22660786627968 0 0 0
9806 1 2 0 48.88023724966505 17.594527370099414 -2.2301643829725073 0 0 0
9807 1 2 0 51.29185760887006 18.636267217091774 -2.2265380308141878 0 0 0
6988 1 1 0 46.63901069506789 21.077692478453116 -1.6448366333490418 0 0 0
9853 1 2 0 51.97744893301891 21.297744242867015 -2.223480180208339 0 0 0
13538 1 2 0 46.68722896916617 21.10099836745391 -2.065459372142165e-07 0 0 0
6972 1 1 0 52.325887551060944 19.78645262975356 -1.6458153488933733 0 0 0
9852 1 2 0 53.80050376839543 19.37069313762812 -2.24107161916872 0 0 0
9829 1 2 0 55.663928450964725 17.470027934181076 -2.2372889383668775 0 0 0
6973 1 1 0 55.27347586881962 18.95793025731937 -1.6457814803381352 0 0 0
9854 1 2 0 56.34024124610052 20.060456847803216 -2.240226727000716 0 0 0
6997 1 1 0 57.228546585491536 21.31020010817382 -1.6455335139752854 0 0 0
13522 1 2 0 52.30045819646107 19.800145221413764 -8.698397656340369e-08 0 0 0
9893 1 2 0 62.53765390998391 17.587554240706407 -2.247796951977702 0 0 0
6998 1 1 0 61.01377466135009 17.678499369169987 -1.64558120448897 0 0 0
9892 1 2 0 60.35957854335172 19.063792986623433 -2.23713403048015 0 0 0
9890 1 2 0 58.75471384867364 21.161260207414813 -2.238335671331581 0 0 0
6999 1 1 0 60.17495106754327 20.586159123848493 -1.6462847232220967 0 0 0
9894 1 2 0 61.3954990834434 21.51704180403352 -2.242954762982207 0 0 0
13549 1 2 0 60.173686734558004 20.588627946329332 -6.392750072123791e-09 0 0 0
8453 1 1 0 63.96887019958719 17.063056373693264 -1.645154533044911 0 0 0
12113 1 2 0 65.15460228668837 18.022800387602153 -2.2560700374776896 0 0 0
8470 1 1 0 65.94899761950332 19.320968088468053 -1.644499672210658 0 0 0
12135 1 2 0 67.46994727016443 19.349696840641766 -2.249047136651212 0 0 0
12137 1 2 0 65.21375208821719 20.665742476980093 -2.223292930189419 0 0 0
8482 1 1 0 65.16257630594527 22.200239510319584 -1.6453133692142154 0 0 0
15020 1 2 0 65.96694006282144 19.28545246470449 -1.5814034056661805e-08 0 0 0
12063 1 2 0 69.14007726802141 17.364863018182398 -2.2482878146629415 0 0 0
8469 1 1 0 68.91395386623032 18.87292441861695 -1.6470238729944189 0 0 0
12136 1 2 0 70.0408261477903 19.8793839534162 -2.2804633583246785 0 0 0
8472 1 1 0 71.15435674979916 20.894838332361886 -1.641082812387994 0 0 0
12138 1 2 0 72.61356535615923 20.402043515408035 -2.174517592791782 0 0 0
8471 1 1 0 74.1587087283421 20.55678406220699 -1.6391552102207358 0 0 0
15021 1 2 0 74.27845276924467 20.58678916550228 -9.948363848174077e-08 0 0 0
12117 1 2 0 76.75400740053306 17.58035260231835 -2.231642996066566 0 0 0
8457 1 1 0 78.26987205721485 17.275472537484827 -1.640539411013734 0 0 0
8456 1 1 0 75.20731585728149 17.663978074071128 -1.6506475548763988 0 0 0
12118 1 2 0 74.81120309432738 19.165954600890732 -2.230953893687251 0 0 0
12119 1 2 0 79.44443107070119 18.356451399535032 -2.2082210106737388 0 0 0
12139 1 2 0 74.81815098652247 21.96851996427135 -2.2220570396091106 0 0 0
15006 1 2 0 75.16178780742094 17.616344974037847 -4.634938421076826e-07 0 0 0
8476 1 1 0 80.6058389461382 19.462504907970064 -1.6389942917926157 0 0 0
12144 1 2 0 82.17351896735158 19.101912374085202 -2.0814410598397326 0 0 0
8475 1 1 0 83.41151969177047 18.072090553359164 -1.6354630916916595 0 0 0
12145 1 2 0 84.93080873961745 18.609952808962465 -2.174327447264799 0 0 0
12146 1 2 0 80.43664490397944 21.03646768183795 -2.1992704418492957 0 0 0
15025 1 2 0 83.55277762532418 17.963547689220864 -4.673670907551775e-08 0 0 0
12126 1 2 0 88.69257433056103 16.95681306129404 -1.703747619426577 0 0 0
12147 1 2 0 87.8867929367642 19.169947525082353 -2.244807548581348 0 0 0
8478 1 1 0 86.33096603536684 19.45165969188256 -1.6550142803625176 0 0 0
8477 1 1 0 89.27028772793913 18.511697810727334 -1.5697479435705213 0 0 0
12148 1 2 0 90.82090537156502 18.837672818412184 -2.1906732062137166 0 0 0
12149 1 2 0 86.25609376305935 20.991031146031336 -2.2451006971450758 0 0 0
15028 1 2 0 86.32133503232262 19.33411994727011 -4.5704276688494053e-07 0 0 0
8491 1 1 0 92.42330452338888 19.03140210677275 -1.6475700435574971 0 0 0
12128 1 2 0 93.63322338598937 17.956259316563973 -2.1369590051785416 0 0 0
12164 1 2 0 93.03122657988064 20.48567932362143 -2.1985594133056674 0 0 0
8493 1 1 0 93.73122693963745 21.885301865377798 -1.6481510516408944 0 0 0
12166 1 2 0 95.29515956216339 22.12096054074377 -2.1876258852003247 0 0 0
15041 1 2 0 92.36314641441476 18.997192862149546 -3.781637566600506e-08 0 0 0
6675 1 1 0 100.1229681589429 18.72319359269733 -1.6458113776565158 0 0 0
9381 1 2 0 98.82671014633534 17.78300826413771 -2.146564520964941 0 0 0
9334 1 2 0 101.64984235493911 18.265445921700547 -2.2015949798140233 0 0 0
9380 1 2 0 99.79148234143075 20.244090012938077 -2.221236451180639 0 0 0
6676 1 1 0 99.50875881754995 21.773778400865076 -1.6459483641401949 0 0 0
9382 1 2 0 98.03016344865121 22.289352860848776 -2.221326297980101 0 0 0
13225 1 2 0 100.16273777640674 18.69722699395221 -1.8993241591504644e-08 0 0 0
9901 1 2 0 9.582500523829092 23.19336054405607 -2.208529281928461 0 0 0
7008 1 1 0 10.110244214288716 24.606987926279025 -1.6457011693398176 0 0 0
9908 1 2 0 8.993416158034435 25.576399052855084 -2.362865691660867 0 0 0
7054 1 1 0 7.858093441458363 26.44591687528371 -1.5858273229939774 0 0 0
9906 1 2 0 11.62262158465422 24.829636189030662 -2.238015550052136 0 0 0
13558 1 2 0 10.159617035423976 24.7221485756662 -1.2568020841538997e-07 0 0 0
6982 1 1 0 17.217037717567305 22.5487651136058 -1.6474441210943664 0 0 0
9868 1 2 0 16.613821106984894 23.9759387174348 -2.241213865027079 0 0 0
7007 1 1 0 12.841329126345283 25.754627891051346 -1.6484077753894104 0 0 0