LAMMPS data file via write_data, version 2 Aug 2023, timestep = 2017, units = metal

15480 atoms
2 atom types

6.218222184961822 197.57342842324653 xlo xhi
6.42042994016875 170.80999308162941 ylo yhi
-100 100 zlo zhi

Masses

1 28.085
2 15.999

Atoms # full

9615 1 2 0 6.6758907926677615 8.643085054127168 -2.3431888960198544 0 0 0
6815 1 1 0 10.212013204896182 7.051159287672974 -1.6467511169124245 0 0 0
9614 1 2 0 9.42567043034691 8.389264055989315 -2.2267318845937045 0 0 0
9607 1 2 0 11.761798305815956 7.035778414775676 -2.207667049092569 0 0 0
6814 1 1 0 8.06321849319233 9.099627986017484 -1.6231386161534926 0 0 0
9612 1 2 0 7.9847054440959635 10.68441619997124 -1.9912767217154106 0 0 0
9605 1 2 0 10.520085984328192 11.127204353307592 -2.24677078150865 0 0 0
6813 1 1 0 9.136735262609568 11.77798193877897 -1.612529671848947 0 0 0
13265 1 2 0 10.234202189165577 6.997600721480244 -4.789826883677084e-07 0 0 0
13264 1 2 0 8.03035429757048 8.817891358533917 -5.03724127903817e-07 0 0 0
6809 1 1 0 13.051240685466304 7.921279382401957 -1.6490734784006853 0 0 0
9606 1 2 0 14.411259880707465 7.15254263922539 -2.2361173121252915 0 0 0
6808 1 1 0 12.04500132698211 10.847274821896821 -1.6492974949588983 0 0 0
9603 1 2 0 12.819048029444954 9.480924697931478 -2.209774058099765 0 0 0
9593 1 2 0 16.866076757035245 11.091030482080217 -2.244241279592929 0 0 0
13258 1 2 0 12.055922780706261 10.7813609999157 -7.749340310344134e-08 0 0 0
9604 1 2 0 12.812366119219273 12.168560589803457 -2.248449544334547 0 0 0
13259 1 2 0 13.11643484029116 7.955689691794883 -4.9817178160214905e-08 0 0 0
9595 1 2 0 17.537349027159554 8.459594640625513 -2.2037908180550416 0 0 0
6810 1 1 0 18.186690727553376 7.032217283664131 -1.6445435389908145 0 0 0
9609 1 2 0 19.66040947670658 6.554856450469175 -2.2522107209896185 0 0 0
9620 1 2 0 22.323423628434625 7.242037435094845 -2.18315661984471 0 0 0
6818 1 1 0 23.021698254611472 8.637954954928949 -1.646268253508552 0 0 0
6803 1 1 0 17.917074982958088 9.95922198508794 -1.6421766130619508 0 0 0
9594 1 2 0 19.45715744731486 10.085324458495355 -2.200156225060897 0 0 0
6805 1 1 0 20.863301010695746 10.710047445146284 -1.6476705962065215 0 0 0
9599 1 2 0 22.139704363834383 9.886879578107592 -2.26163363358538 0 0 0
13260 1 2 0 18.32570144071902 7.067560961759664 -6.696788278726897e-08 0 0 0
13255 1 2 0 20.92790426847198 10.704827980539362 -8.496782551098878e-08 0 0 0
9598 1 2 0 20.86950902315931 12.191108640132109 -2.3424657988313196 0 0 0
13268 1 2 0 23.069134026359478 8.645187318427668 -6.27085091274325e-08 0 0 0
13253 1 2 0 17.86656749084252 10.031307416917455 -9.957079327077344e-07 0 0 0
9621 1 2 0 24.532851596223264 8.848023972793259 -2.259869856868538 0 0 0
9624 1 2 0 26.898420621914852 7.752034801309352 -2.1895500771470937 0 0 0
6820 1 1 0 26.054338366172086 9.078436199434487 -1.6484407155080922 0 0 0
9623 1 2 0 26.623118634228565 10.546164060149488 -2.2082323053123485 0 0 0
6821 1 1 0 27.44267024112164 11.894953321343246 -1.6472172075513396 0 0 0
13270 1 2 0 26.058553458968756 9.110687478277915 -8.323832598409897e-08 0 0 0
9639 1 2 0 31.19541942575172 7.623407917219819 -2.2309175384129056 0 0 0
9640 1 2 0 33.579304879535805 8.822532587142415 -2.2226611283465565 0 0 0
9638 1 2 0 31.30133814001436 10.298555944679439 -2.229202825049727 0 0 0
6829 1 1 0 32.02931424614692 8.92689406301172 -1.6480289308422 0 0 0
9626 1 2 0 28.995116755563014 11.722132150035625 -2.200239934432296 0 0 0
6830 1 1 0 30.551680458816225 11.658025766763233 -1.6466804123795211 0 0 0
13280 1 2 0 30.57873529605411 11.6506803434704 -2.7426509281287975e-07 0 0 0
9644 1 2 0 35.87475111188933 7.363587136661665 -2.2268230314923976 0 0 0
6832 1 1 0 35.12827373566807 8.722611688895247 -1.6475966802976107 0 0 0
9643 1 2 0 35.963499724110946 10.016733195992556 -2.2369737875968814 0 0 0
6841 1 1 0 39.852304242946694 11.134564727908515 -1.6477983016403268 0 0 0
6833 1 1 0 36.75221942954277 11.340409409439017 -1.647768297796155 0 0 0
9646 1 2 0 38.30572067182295 11.285087540802689 -2.223900199596672 0 0 0
13283 1 2 0 36.76553200451314 11.351761078703637 -1.5459706958682712e-08 0 0 0
13282 1 2 0 35.12402237102491 8.717610469972389 -9.488833254546084e-08 0 0 0
6840 1 1 0 41.358604297395914 8.423121150789191 -1.647841403304823 0 0 0
9657 1 2 0 40.58609140949573 7.084977696332369 -2.232190714552864 0 0 0
6843 1 1 0 44.4553731131825 8.250738645600741 -1.6478509293454204 0 0 0
9658 1 2 0 42.91048111466722 8.39893463354059 -2.225694001482585 0 0 0
9662 1 2 0 45.12497250666951 6.851291095852255 -2.2258885509287207 0 0 0
9656 1 2 0 40.557455898810765 9.751943463996723 -2.2249500917243124 0 0 0
9661 1 2 0 45.34783348447268 9.514458475211237 -2.2298872305470585 0 0 0
13293 1 2 0 44.45237553420831 8.251694485229022 -3.0197549670369314e-07 0 0 0
9663 1 2 0 45.31606300913086 12.174528769535593 -2.2297307240764477 0 0 0
6850 1 1 0 50.684398030629055 8.035210280317726 -1.6477782043630422 0 0 0
9674 1 2 0 49.916427884015874 6.687977042722565 -2.225936123029844 0 0 0
6844 1 1 0 46.12109610103754 10.853883065527462 -1.647785234180079 0 0 0
6851 1 1 0 49.21925062136948 10.756182386312668 -1.6477923347373942 0 0 0
9664 1 2 0 47.672105936656486 10.865725470947513 -2.226946574389076 0 0 0
9673 1 2 0 49.89584176052755 9.365642838876019 -2.2304051322305027 0 0 0
13300 1 2 0 50.68653664694079 8.035444627003002 -2.4902661355710537e-07 0 0 0
13301 1 2 0 49.21490867541349 10.761837652580109 -6.663827101400835e-07 0 0 0
9676 1 2 0 50.10996765337145 12.02287688229875 -2.2283293443165126 0 0 0
6853 1 1 0 53.78238579540812 7.9938914194905095 -1.6477496077112743 0 0 0
9675 1 2 0 52.23415910044657 8.066442369499766 -2.2271401193040044 0 0 0
9679 1 2 0 54.46522097768166 6.607663092320525 -2.231718538468095 0 0 0
6854 1 1 0 55.462536842491915 10.602463019423599 -1.6477058483910596 0 0 0
9678 1 2 0 54.652936384586276 9.278665853933687 -2.2249823697641467 0 0 0
13304 1 2 0 55.466431874989155 10.597226610826212 -8.010641504532954e-08 0 0 0
9680 1 2 0 54.70588118002477 11.946924760644821 -2.2340086619450275 0 0 0
13303 1 2 0 53.78172265277554 8.000516381951968 -3.143442654378267e-07 0 0 0
6865 1 1 0 59.994991771668104 7.865555910236571 -1.647686978994834 0 0 0
9697 1 2 0 59.148592298596476 6.563097972260652 -2.2234302674875845 0 0 0
9699 1 2 0 61.54460567589052 7.83320190392812 -2.2269639241407133 0 0 0
6863 1 1 0 58.56288851869269 10.601807239892823 -1.647698402913106 0 0 0
9681 1 2 0 57.012567775821424 10.617657339110878 -2.2270231095413258 0 0 0
9695 1 2 0 59.284803679226094 9.236788760231994 -2.2326682842764813 0 0 0
9696 1 2 0 59.40001914945119 11.91046462479721 -2.2233630201910075 0 0 0
8290 1 1 0 63.094738383321385 7.856803557533665 -1.6476947702465083 0 0 0
11858 1 2 0 63.859459686706266 6.512839727283631 -2.230364050741754 0 0 0
8291 1 1 0 64.74896376983816 10.48533346771484 -1.6477366232853472 0 0 0
11857 1 2 0 63.88191499505522 9.196070369963785 -2.223031530909274 0 0 0
11860 1 2 0 66.29506192368545 10.393856322283858 -2.2275331902541837 0 0 0
8296 1 1 0 67.84384483683677 10.439800736734572 -1.6478359887703764 0 0 0
11859 1 2 0 64.08193860192497 11.882490768316945 -2.2286399578172444 0 0 0
14740 1 2 0 63.093911173591316 7.861927574427811 -3.0780955875746894e-07 0 0 0
14741 1 2 0 64.74646048543133 10.484280548576827 -1.9428310305793056e-07 0 0 0
14746 1 2 0 67.85020352642961 10.43891086684708 -2.448363751652464e-07 0 0 0
8295 1 1 0 69.28714660346688 7.694342621768991 -1.6477741929963285 0 0 0
11867 1 2 0 70.83122352412626 7.541216976983686 -2.2229800825759294 0 0 0
8298 1 1 0 72.38304907052544 7.568696017370063 -1.6477647330626835 0 0 0
11865 1 2 0 68.64080727586362 9.106689119961233 -2.2248067422621514 0 0 0
11870 1 2 0 73.09190919070896 8.945611817547993 -2.228456750277373 0 0 0
11868 1 2 0 68.56844188977828 11.815328360987857 -2.221726271836119 0 0 0
11872 1 2 0 73.28791727421736 11.644872280447364 -2.2236533052181797 0 0 0
14745 1 2 0 69.2852795781905 7.698131017863571 -1.1447774640084771e-07 0 0 0
11866 1 2 0 68.3966684610126 6.423682086651468 -2.225713809946939 0 1 0
11886 1 2 0 77.84233957049827 8.765593035310863 -2.217305125339932 0 0 0
8309 1 1 0 78.54880397017698 7.371746946246639 -1.6479888957203686 0 0 0
8299 1 1 0 73.94603717521892 10.236679860712693 -1.647688307919133 0 0 0
11873 1 2 0 75.48420497218268 10.07913742476522 -2.2284670022194923 0 0 0
8308 1 1 0 77.03121603776218 10.098403284920307 -1.6479796776404716 0 0 0
11887 1 2 0 77.71299415390735 11.488450051085135 -2.2348077151976247 0 0 0
14759 1 2 0 78.54173971071243 7.385453297826685 -1.82415070827385e-07 0 0 0
11889 1 2 0 80.0989415539384 7.249663597023853 -2.221351920906313 0 0 0
8334 1 1 0 81.65694890705153 7.248230651759337 -1.648778638425654 0 0 0
11926 1 2 0 82.35743952742104 8.648835959210832 -2.220647235632736 0 0 0
8332 1 1 0 82.83917515581079 10.132706325526975 -1.6484125726511716 0 0 0
11908 1 2 0 84.30673725093897 10.564379776418036 -2.2591936552588203 0 0 0
11925 1 2 0 81.8853535909395 11.36575792322916 -2.2012627144923416 0 0 0
14784 1 2 0 81.65830314398723 7.24210356522961 -1.162104413000994e-06 0 0 0
14782 1 2 0 82.84941351016951 10.073316820042983 -3.300340824273192e-07 0 0 0
8322 1 1 0 87.26878843376984 7.712724440397436 -1.6409151917700406 0 0 0
11899 1 2 0 88.73554743216533 8.216024032624981 -2.228014056104358 0 0 0
8320 1 1 0 85.83443212254005 10.49701979357691 -1.6459077130247088 0 0 0
11907 1 2 0 86.28525087661473 8.964450426552574 -2.132564078200943 0 0 0
8314 1 1 0 89.84909194547998 9.297526153712182 -1.647863386041803 0 0 0
11896 1 2 0 89.80980157000717 10.848197064383397 -2.2316908720417903 0 0 0
11906 1 2 0 86.62064551832827 11.863624017891942 -2.217915883056151 0 0 0
14770 1 2 0 85.88686765844484 10.566762986355306 -1.4675454888799884e-07 0 0 0
14764 1 2 0 89.73900556738242 9.348781399988086 -8.284246823411603e-08 0 0 0
8312 1 1 0 92.3991212385668 7.735821059791767 -1.6519599715639923 0 0 0
11894 1 2 0 91.2431185555117 8.712331215199724 -2.264649273207514 0 0 0
11891 1 2 0 93.78178979942001 8.417182317336822 -2.246917575239894 0 0 0
8311 1 1 0 95.01548649195921 9.335508797888073 -1.6540767769476017 0 0 0
11892 1 2 0 95.00444479488108 10.862780676463473 -2.2587026462605824 0 0 0
11893 1 2 0 96.44568342355846 8.682842823673285 -2.224597173333145 0 0 0
8317 1 1 0 96.87071301304846 7.232098216840734 -1.56581475421881 0 0 0
7830 1 1 0 101.5513374927139 7.8726180864414665 -1.6372164086660934 0 0 0
11181 1 2 0 100.31826352369033 6.978383390521281 -2.171320628581831 0 0 0
6537 1 1 0 100.65222820061132 10.72929944289884 -1.639193750901205 0 0 0
9184 1 2 0 101.08084263076077 9.298276805016144 -2.312764054905898 0 0 0
9183 1 2 0 99.20971399157122 11.281924522169549 -2.21636203285495 0 0 0
9613 1 2 0 8.443695872362792 13.112523347260032 -2.2901974818373225 0 0 0
6867 1 1 0 7.356624483915891 14.191953082293537 -1.6418652909631688 0 0 0
9701 1 2 0 8.048077601082028 15.581632928612128 -2.152944662165316 0 0 0
6869 1 1 0 9.177392157272383 16.647852665542263 -1.6422087522264508 0 0 0
9703 1 2 0 10.692916578476275 16.32933522353119 -2.2368822593146014 0 0 0
13317 1 2 0 7.275088378830529 14.026442233359818 -4.3313719527576996e-07 0 0 0
9705 1 2 0 8.524466844868607 18.01472313986039 -2.280725866947556 0 0 0
6811 1 1 0 13.5969572055256 13.475242882030194 -1.646371047288132 0 0 0
9597 1 2 0 15.112669905050232 13.227201604483062 -2.2378781557256 0 0 0
6804 1 1 0 16.51126578445348 12.604488842935002 -1.6508929294820671 0 0 0
9610 1 2 0 12.974482698518745 14.886911134008278 -2.2457026513921674 0 0 0
6868 1 1 0 12.248512776536469 16.2555686134033 -1.6487339708122901 0 0 0
13261 1 2 0 13.553839552540813 13.51123971401276 -1.1067362224070844e-07 0 0 0
13254 1 2 0 16.477916173042352 12.543438114596773 -2.0157093814160957e-07 0 0 0
9704 1 2 0 13.130374214410669 17.558466981895975 -2.1790178585326734 0 0 0
9596 1 2 0 17.62630526169689 13.646566733642144 -2.2754782063263166 0 0 0
6806 1 1 0 21.092035737373465 13.644713293926383 -1.639476506401979 0 0 0
6807 1 1 0 18.43487542058076 14.922512164194432 -1.6391043682889164 0 0 0
9600 1 2 0 19.999841404044485 14.767940800508613 -2.150118957035888 0 0 0
9601 1 2 0 22.578921065511018 14.053282545387821 -2.1704943153744796 0 0 0
9602 1 2 0 17.89727442707934 16.376293903429357 -2.2036059352351676 0 0 0
9628 1 2 0 22.47155467592576 16.663743465585142 -2.2379889769793326 0 0 0
6874 1 1 0 18.47627782672357 17.834966449081044 -1.6495278442013341 0 0 0
9713 1 2 0 20.02968180376135 18.030407739558967 -2.2180912168186007 0 0 0
6875 1 1 0 21.588041693102156 17.93079326167254 -1.6488334616368445 0 0 0
9625 1 2 0 26.859027226833263 13.367516993894665 -2.2057018012518324 0 0 0
6822 1 1 0 23.346765304072964 15.403395513652006 -1.6412877575731775 0 0 0
9627 1 2 0 24.83147583324373 15.168611326688296 -2.291091267496095 0 0 0
6823 1 1 0 26.319652467064774 14.854578666399421 -1.6478627600118163 0 0 0
9629 1 2 0 27.124621925697873 16.208761176476663 -2.171851911421806 0 0 0
6878 1 1 0 27.711400451495518 17.676062283171916 -1.6464846630602075 0 0 0
13328 1 2 0 27.666511463833242 17.722113652690172 -4.6705705453473677e-08 0 0 0
9641 1 2 0 31.33641264417306 12.986425529788615 -2.2374041207993454 0 0 0
6834 1 1 0 32.123165142935356 14.31567731417483 -1.6487694724916444 0 0 0
9648 1 2 0 31.32480880943518 15.657644516214054 -2.22216189694103 0 0 0
9647 1 2 0 33.68057775130411 14.222437643283662 -2.216922004135877 0 0 0
6879 1 1 0 30.740776043765027 17.105362443069758 -1.6461388551671532 0 0 0
9719 1 2 0 29.263753646343346 17.577596204809815 -2.22808266986676 0 0 0
13329 1 2 0 30.68824380735076 17.033285197181193 -9.90330970795254e-09 0 0 0
9645 1 2 0 35.943093769105644 12.664840227939505 -2.2239777412346298 0 0 0
6835 1 1 0 35.22710726221464 14.042814827118569 -1.647450770979393 0 0 0
9649 1 2 0 36.122831289535604 15.291950794438062 -2.240103229757733 0 0 0
6885 1 1 0 36.92093735119914 16.605016502106185 -1.647729481697066 0 0 0
9730 1 2 0 38.471570579428146 16.552213764245092 -2.2279600047013757 0 0 0
13285 1 2 0 35.21895974357765 14.03349986760988 -1.0200001637824033e-07 0 0 0
9731 1 2 0 36.103677257784405 17.916287251445347 -2.2311462690401536 0 0 0
9659 1 2 0 40.73673910565307 12.399034363328026 -2.2338470912991713 0 0 0
6846 1 1 0 44.62847927258663 13.559839064980928 -1.6477471735364755 0 0 0
6845 1 1 0 41.53077091022411 13.7215873547966 -1.6477933229604944 0 0 0
9666 1 2 0 40.73458105254345 15.048463354186778 -2.2288762375277322 0 0 0
9665 1 2 0 43.08259006743909 13.693407317216696 -2.2269083313862654 0 0 0
9667 1 2 0 45.53176544333396 14.812278614072316 -2.2325298655398975 0 0 0
6886 1 1 0 40.01631680532414 16.419194198511466 -1.6477226864918781 0 0 0
9732 1 2 0 40.892456888642585 17.685584981720268 -2.2373463191082985 0 0 0
9742 1 2 0 45.53552331561478 17.450774568133887 -2.236475361383305 0 0 0
13295 1 2 0 41.54163369398414 13.72751080578804 -2.516157915766605e-07 0 0 0
6855 1 1 0 50.90612728774408 13.35044506966796 -1.6477165887316039 0 0 0
9683 1 2 0 50.121293278473935 14.677405156618294 -2.2350224652417605 0 0 0
6893 1 1 0 49.42982399325701 16.0549743184091 -1.647760387012266 0 0 0
6892 1 1 0 46.33195531254614 16.13205320995672 -1.647714528132711 0 0 0
9741 1 2 0 47.88190981449468 16.14176532233356 -2.2284207681736508 0 0 0
9743 1 2 0 50.32457969014268 17.3164879707139 -2.230324658647605 0 0 0
13305 1 2 0 50.91401615760303 13.348860294150033 -2.7681334213001574e-08 0 0 0
13343 1 2 0 49.41837989777687 16.063396122985864 -1.0514140796231336e-07 0 0 0
13342 1 2 0 46.34253295256264 16.13292359526439 -2.300258286391814e-07 0 0 0
6856 1 1 0 54.00471301123638 13.32094356165972 -1.6477193330649855 0 0 0
9682 1 2 0 52.45564229148466 13.373741035794271 -2.2280007846777834 0 0 0
9684 1 2 0 54.87160681911354 14.605481601416683 -2.227376285132116 0 0 0
6896 1 1 0 55.68852879163961 15.922066564356946 -1.6475976021799912 0 0 0
9748 1 2 0 54.93092361612119 17.260874295564953 -2.237724583510951 0 0 0
13306 1 2 0 53.999605320002864 13.330826347631568 -2.3814410520898345e-08 0 0 0
13346 1 2 0 55.69359768139493 15.914359748004442 -1.484233266304332e-07 0 0 0
6898 1 1 0 60.233771763693184 13.22135222434181 -1.6477114241385213 0 0 0
9751 1 2 0 61.783600369254586 13.21430005075952 -2.226807715098978 0 0 0
9747 1 2 0 57.23648882306751 15.945390712657215 -2.228984630580913 0 0 0
6897 1 1 0 58.78532747951353 15.945086615432466 -1.6476464370601223 0 0 0
9749 1 2 0 59.51100569735782 14.584080677398845 -2.2341546473861174 0 0 0
9750 1 2 0 59.6173515011862 17.25550168425006 -2.2249070687255927 0 0 0
13348 1 2 0 60.23393965655783 13.214087778502776 -1.439639370876308e-07 0 0 0
13347 1 2 0 58.78059799831312 15.957870787820111 -1.0619031599549504e-07 0 0 0
8292 1 1 0 63.334085174199586 13.238398713368252 -1.6477715980764416 0 0 0
11861 1 2 0 64.12955620962677 14.57744023705998 -2.219940555004098 0 0 0
8327 1 1 0 64.96164158812317 15.894498346664742 -1.6478582314661734 0 0 0
11917 1 2 0 66.5108355828285 15.872383916163443 -2.227231494411289 0 0 0
8328 1 1 0 68.06087114110103 15.902665433240356 -1.6479589899584497 0 0 0
11918 1 2 0 64.26775685808481 17.277687661546913 -2.2291354672890833 0 0 0
14778 1 2 0 68.06450948573752 15.91217317737511 -2.2760786442775073e-07 0 0 0
8300 1 1 0 69.42813188109061 13.110763399251383 -1.6477570768547585 0 0 0
11874 1 2 0 70.96620743518555 12.9757217867559 -2.234228742917256 0 0 0
8301 1 1 0 72.50974146226523 12.990128491834708 -1.6479084940614732 0 0 0
11875 1 2 0 68.79668398455613 14.531382674404208 -2.2202102070726193 0 0 0
11876 1 2 0 73.2352230695349 14.359427514393657 -2.2289510776739867 0 0 0
11919 1 2 0 68.83740922613134 17.25895332606705 -2.217018369882223 0 0 0
11923 1 2 0 73.27784147832129 17.082804254523758 -2.223441220777147 0 0 0
14751 1 2 0 72.51864104456291 12.989848720319811 -6.05748305666901e-08 0 0 0
14750 1 2 0 69.42229649279669 13.112461444623586 -1.5078920709298686e-06 0 0 0
8329 1 1 0 78.37952993814413 12.882122897625148 -1.6470015924111328 0 0 0
8330 1 1 0 73.98850213243705 15.711339662511314 -1.6470563371546432 0 0 0
11922 1 2 0 75.51381338761054 15.73446233827681 -2.255063395240858 0 0 0
11920 1 2 0 77.6312254142543 14.230715491436998 -2.230230293076442 0 0 0
8331 1 1 0 77.03739882607589 15.653677139851673 -1.6474642235528623 0 0 0
11924 1 2 0 77.85388092416972 16.96699082440926 -2.233624543454078 0 0 0
14781 1 2 0 77.06860823741776 15.667496637115708 -2.116714464223896e-07 0 0 0
14779 1 2 0 78.35671746876864 12.85997818243684 -3.53350133102901e-08 0 0 0
11921 1 2 0 79.89732545079131 13.000261846553132 -2.2509182231744864 0 0 0
8333 1 1 0 81.41424195902168 12.849595282160323 -1.647582590685964 0 0 0
11927 1 2 0 82.24848969419834 14.149417273740939 -2.2549043848558674 0 0 0
8337 1 1 0 82.88213790022162 15.550429536286345 -1.6376503650209489 0 0 0
11932 1 2 0 84.44125245975219 15.574729910516599 -2.127563767092988 0 0 0
11933 1 2 0 82.23045438414586 16.934635652753315 -2.2634159523207154 0 0 0
8321 1 1 0 87.35047783332838 13.269623193847796 -1.644518814557712 0 0 0
11898 1 2 0 88.9333565215447 13.304809158188307 -2.1356117192324615 0 0 0
8313 1 1 0 90.19153468669695 12.353781528973556 -1.6423966581139637 0 0 0
11909 1 2 0 86.8311250117975 14.73919822204508 -2.2391730772552667 0 0 0
8338 1 1 0 85.94525139715431 16.01611018049425 -1.636763829896972 0 0 0
14788 1 2 0 86.11885399318979 16.078403124024934 -1.3620536587841263e-08 0 0 0
11934 1 2 0 86.27612805006802 17.55350258810408 -2.2184612973477678 0 0 0
14771 1 2 0 87.19296854981263 13.252340242667348 -1.4267248944815774e-07 0 0 0
14763 1 2 0 90.32043889357905 12.300015030581724 -2.2446211875168048e-07 0 0 0
11897 1 2 0 91.60178390668557 12.99420112878109 -2.2517635393698794 0 0 0
11900 1 2 0 94.34619082704018 13.361874687189795 -2.1897067790804137 0 0 0
8315 1 1 0 95.50343417967775 12.319384941495867 -1.6473481408047312 0 0 0
8316 1 1 0 92.87138172604894 13.888043090907127 -1.6482160358548004 0 0 0
11901 1 2 0 92.77040426310731 15.431442790150982 -2.229622233450601 0 0 0
8354 1 1 0 93.26980395212017 16.892652643664942 -1.6523993960889287 0 0 0
11957 1 2 0 94.79513015897462 17.237582180581473 -2.239571609615223 0 0 0
11956 1 2 0 92.12028434994025 17.945827842317208 -2.2158093121507374 0 0 0
14766 1 2 0 92.82413591337536 13.858360802136586 -3.169819426894739e-08 0 0 0
9185 1 2 0 96.99735067936273 12.778429882653489 -2.230778369506735 0 0 0
6538 1 1 0 98.55619658245986 12.708261596061694 -1.6511447645482948 0 0 0
9181 1 2 0 99.6283078870458 13.846911576456902 -2.2278479855237228 0 0 0
6536 1 1 0 100.31442824854217 15.246894427234007 -1.6388426101730735 0 0 0
9179 1 2 0 101.6978684735609 15.97351393286646 -2.2547269749699232 0 0 0
9182 1 2 0 99.17735984170368 16.32182531509053 -2.119886089816793 0 0 0
6571 1 1 0 98.95094287933681 17.86608116638 -1.6425942368138406 0 0 0
9235 1 2 0 97.46246903096407 18.09852712274986 -2.3179633309416476 0 0 0
13021 1 2 0 98.93919927123223 18.04811580371142 -7.555574535736081e-08 0 0 0
12988 1 2 0 98.48846634362243 12.770703368786656 -5.4974035823773026e-08 0 0 0
6920 1 1 0 7.883933011806707 19.394619290434704 -1.6466878606401503 0 0 0
9785 1 2 0 6.3057802725552206 19.595050755968735 -2.198080064693125 0 0 0
9784 1 2 0 9.059256209415715 20.478920350689894 -2.144613427543984 0 0 0
6921 1 1 0 10.621185105952105 20.82067554714797 -1.6464042641705654 0 0 0
9786 1 2 0 10.887501683587377 22.32542597423698 -2.2553284323758525 0 0 0
13370 1 2 0 7.807068421012893 19.373182879712076 -7.330962389173491e-08 0 0 0
6947 1 1 0 10.707783124440054 23.839404699171702 -1.6490641771963976 0 0 0
9753 1 2 0 11.930221180997034 19.9381275061559 -2.2062772636562418 0 0 0
6899 1 1 0 13.283201332876486 19.129371302493812 -1.6470792113470571 0 0 0
9752 1 2 0 14.750760700548897 19.71776093066223 -2.210397694929033 0 0 0
6900 1 1 0 16.2957898329087 20.04289474235318 -1.6481509377708203 0 0 0
9714 1 2 0 17.413514210017063 18.95614118189549 -2.2377982516451693 0 0 0
9754 1 2 0 16.815025254795618 21.53142283635188 -2.1826523280987775 0 0 0
13349 1 2 0 13.319518401490578 19.190133824975778 -2.6734184257520707e-07 0 0 0
9715 1 2 0 22.448667306184195 19.18452664348523 -2.2585679790089244 0 0 0
6929 1 1 0 17.76018589682798 22.794417396964437 -1.6477306195118289 0 0 0
9798 1 2 0 19.329219144107302 22.598900177529504 -2.201730378513727 0 0 0
9759 1 2 0 22.010945091345693 21.679771311091393 -2.213081415317862 0 0 0
6930 1 1 0 20.898581768532676 22.766603759855343 -1.650476477062463 0 0 0
6903 1 1 0 23.09361254703145 20.56098688361477 -1.6457303678410604 0 0 0
9758 1 2 0 24.65978214139574 20.641785810214383 -2.203069102590223 0 0 0
9720 1 2 0 26.952933651341876 19.08362179965635 -2.190404748657055 0 0 0
6904 1 1 0 26.232709804540164 20.523039029805293 -1.6492438533720277 0 0 0
9760 1 2 0 26.9421522623882 21.949926127720747 -2.17912812712937 0 0 0
13353 1 2 0 23.133899808671377 20.612547568002693 -3.1248199538044134e-07 0 0 0
6934 1 1 0 27.948370347448915 23.18803846385561 -1.647216933448788 0 0 0
13384 1 2 0 27.879960220344646 23.216731687160863 -4.276914075940542e-07 0 0 0
9721 1 2 0 31.762892481112296 18.26363329177326 -2.2110455408950123 0 0 0
6907 1 1 0 32.41657293204564 19.660932484636255 -1.6465157183867334 0 0 0
9764 1 2 0 33.96085504309457 19.640526580225185 -2.2394964990990647 0 0 0
9806 1 2 0 29.429447289348527 22.701090517316338 -2.2173370977218774 0 0 0
9765 1 2 0 31.535878805710105 20.935098410227475 -2.235371250954569 0 0 0
6935 1 1 0 30.94172548289153 22.3659684585319 -1.6464110881329286 0 0 0
13357 1 2 0 32.424646736733195 19.71937733481919 -1.818480117636798e-07 0 0 0
13385 1 2 0 30.921990023050956 22.34175624850186 -1.2609053236066963e-07 0 0 0
9808 1 2 0 31.941496759779938 23.52924632152619 -2.2366625282946466 0 0 0
6908 1 1 0 35.47068570400064 19.325657309757954 -1.6473348941598085 0 0 0
9766 1 2 0 36.45576132782066 20.497307118492174 -2.237927284410958 0 0 0
6937 1 1 0 37.17588915357686 21.84676747468672 -1.6468124805033568 0 0 0
9810 1 2 0 38.71801967685121 21.8322099127591 -2.2371753802535803 0 0 0
9811 1 2 0 36.28370676223809 23.100428812470955 -2.2384639625922693 0 0 0
6911 1 1 0 41.72623878988526 18.978914436351584 -1.6477289706406428 0 0 0
9771 1 2 0 40.97851991737687 20.328305316004933 -2.2356460415195785 0 0 0
9770 1 2 0 43.27194593462615 18.908637334867898 -2.230983962395148 0 0 0
6912 1 1 0 44.81507578319884 18.811390803042546 -1.6476286680662198 0 0 0
6938 1 1 0 40.253239957484624 21.6898515899065 -1.6480601267584423 0 0 0
13361 1 2 0 41.73975701607731 18.97971133278611 -1.1345736240780462e-07 0 0 0
13362 1 2 0 44.80929828666768 18.815027353341343 -5.373003266557362e-07 0 0 0
13388 1 2 0 40.255000320054904 21.66859394566246 -4.906271503789432e-07 0 0 0
9812 1 2 0 41.08845371855879 22.97595771837324 -2.2458864508698757 0 0 0
9851 1 2 0 43.522297047573524 24.012154745158096 -2.2470603107890326 0 0 0
6965 1 1 0 45.051496582816235 24.024635200303845 -1.647224297128649 0 0 0
9772 1 2 0 45.680876794090544 20.080435832055095 -2.242386975670243 0 0 0
6916 1 1 0 51.13892497085731 18.630665782466615 -1.647636381943405 0 0 0
9779 1 2 0 50.36660461863411 19.957387966139773 -2.2419922907587972 0 0 0
6941 1 1 0 46.53666918839904 21.35390177940322 -1.6473412136594403 0 0 0
9817 1 2 0 45.833120673061536 22.711875937919118 -2.2476810855246394 0 0 0
9816 1 2 0 48.07291245654712 21.29489812679904 -2.239390261815883 0 0 0
6942 1 1 0 49.610863233406754 21.29152987239727 -1.6475096300673175 0 0 0
9818 1 2 0 50.40925605143301 22.602906888211688 -2.2432667811752354 0 0 0
13391 1 2 0 46.540397658979174 21.35246088154379 -7.247101910042727e-08 0 0 0
13366 1 2 0 51.14388024401427 18.62140090294823 -1.5463301263367376e-07 0 0 0
9778 1 2 0 52.686168005026985 18.66906299235817 -2.2301529962751805 0 0 0
6917 1 1 0 54.23469582101744 18.632622083648485 -1.6476828749101837 0 0 0
9780 1 2 0 55.120361304402394 19.905068097611924 -2.2259930960005865 0 0 0
6944 1 1 0 55.9128120529348 21.23839014737584 -1.647705411561342 0 0 0
9821 1 2 0 55.1092940166599 22.547581054751276 -2.240904406642965 0 0 0
13367 1 2 0 54.219006989231865 18.647906368387126 -3.192308371850276e-07 0 0 0
6968 1 1 0 51.25162564788462 23.885838058431958 -1.6475265946780564 0 0 0
9857 1 2 0 52.78640918987804 23.82631263746104 -2.238995730270123 0 0 0
6969 1 1 0 54.32274439673702 23.86399261275682 -1.6474434328643772 0 0 0
13418 1 2 0 51.249068040063314 23.88333171811826 -7.634703017436874e-08 0 0 0
6946 1 1 0 60.43466616135349 18.575357151465834 -1.6475770961465492 0 0 0
9822 1 2 0 59.6893738957774 19.92207125300811 -2.2366115763925083 0 0 0
9824 1 2 0 61.982382391092955 18.60079079838928 -2.2283598071364543 0 0 0
9820 1 2 0 57.46068732467329 21.33458816516142 -2.2274227045297987 0 0 0
6945 1 1 0 59.01349862118602 21.30583341952247 -1.6477006627109985 0 0 0
9823 1 2 0 59.922390109966024 22.57209372941746 -2.215336827876535 0 0 0
13395 1 2 0 58.99341002428844 21.323872872160216 -1.1482360306937946e-07 0 0 0
7004 1 1 0 60.67384362313315 23.94051875802801 -1.6479565242505554 0 0 0
13396 1 2 0 60.43618527029719 18.565157863959637 -2.168451582083659e-09 0 0 0
13454 1 2 0 60.68791751766744 23.919915798559973 -5.0233235068480274e-08 0 0 0
8344 1 1 0 63.53101078497718 18.638625543395726 -1.6477239911145174 0 0 0
11942 1 2 0 64.32163471599266 19.9818116580344 -2.2196035044922913 0 0 0
8363 1 1 0 65.13352678501796 21.31283963726386 -1.6476353899511729 0 0 0
11970 1 2 0 64.419863272642 22.682974368191783 -2.231988405139551 0 0 0
11969 1 2 0 66.68181146229445 21.327998956069774 -2.2253320407477633 0 0 0
14813 1 2 0 65.12166385655911 21.300821496463826 -1.9960336165614243e-07 0 0 0
14794 1 2 0 63.533186529902466 18.65054359385138 -4.346985413944516e-09 0 0 0
8346 1 1 0 69.6324039505779 18.60579432042962 -1.6477669738519352 0 0 0
11945 1 2 0 68.94090565412958 19.99749676513484 -2.2176915385991958 0 0 0
11944 1 2 0 71.17797451043693 18.63772956687722 -2.232553899044494 0 0 0
8347 1 1 0 72.71979317062637 18.52619019128856 -1.6477758276235397 0 0 0
11946 1 2 0 73.66406445522519 19.767662055082972 -2.2232363941035596 0 0 0
8364 1 1 0 68.23063922644691 21.380534868542437 -1.6476944029530651 0 0 0
11971 1 2 0 68.99873741620817 22.7437392554371 -2.220426680236464 0 0 0
11973 1 2 0 73.49557114001453 22.434692023526473 -2.215614647762652 0 0 0
11989 1 2 0 71.39682647288633 24.019169125622376 -2.2277243694706934 0 0 0
8380 1 1 0 72.94041772332243 23.88126092065985 -1.6478115239257833 0 0 0
14830 1 2 0 72.92996664680544 23.915930518154596 -5.774847862160863e-09 0 0 0
14829 1 2 0 69.82163383989382 24.02868849440126 -5.781599637562652e-09 0 0 0
8350 1 1 0 78.58078662778566 18.331157568140636 -1.6472926438476747 0 0 0
11951 1 2 0 77.85639502805144 19.69290087465679 -2.2253995524808343 0 0 0
8365 1 1 0 74.37399495166511 21.158507265686218 -1.6476157550670023 0 0 0
11972 1 2 0 75.91263927041643 21.402816377094325 -2.217052074116962 0 0 0
8366 1 1 0 77.45718596852518 21.188090800223534 -1.64777758489678 0 0 0
11974 1 2 0 78.52260707488462 22.33769952462493 -2.213866373499342 0 0 0
14816 1 2 0 77.47304665097991 21.223454857024144 -2.6625152916687447e-07 0 0 0
11950 1 2 0 80.09930991406459 18.388384932751173 -2.26341660582426 0 0 0
8351 1 1 0 81.61932276161866 18.345578072168962 -1.6497444655557314 0 0 0
11952 1 2 0 82.3580105620711 19.728094858683967 -2.1879623550739806 0 0 0
11959 1 2 0 84.96919266720431 20.037593209544653 -2.2080574001395523 0 0 0
8369 1 1 0 83.56829595544818 20.733962441977155 -1.6459570030772592 0 0 0
11978 1 2 0 83.35501494728746 22.299697494888562 -2.200868558633814 0 0 0
14819 1 2 0 83.58712683664581 20.788218726791907 -5.781281781431425e-07 0 0 0
8382 1 1 0 79.45287837314218 23.606046862219408 -1.6473018851442816 0 0 0
11993 1 2 0 81.02373472744901 23.570429553086985 -2.1899209884101687 0 0 0
8383 1 1 0 82.59656699295971 23.69889023488459 -1.6491408218543184 0 0 0
14833 1 2 0 82.63448741868667 23.723592779841592 -7.316215297920635e-08 0 0 0
14801 1 2 0 81.65336734619501 18.31438434917848 -3.7325910632891076e-07 0 0 0