LAMMPS data file via write_data, version 2 Aug 2023, timestep = 1337, units = metal

15576 atoms
2 atom types

7.105093757144542 197.90901858554994 xlo xhi
5.2480388505237165 171.97084876850232 ylo yhi
-100 100 zlo zhi

Masses

1 28.085
2 15.999

Atoms # full

6793 1 1 0 7.52431918978081 6.410218059863034 -1.6178522790567973 0 0 0
9568 1 2 0 9.186144791857146 6.455401189565826 -1.7758263377888317 0 0 0
6791 1 1 0 7.642049883683545 9.133427808235137 -1.6204306417655003 0 0 0
9552 1 2 0 9.257389310547229 9.264803555956492 -1.8763879418103975 0 0 0
9564 1 2 0 7.112264726679962 7.793406396229444 -2.3742354457668258 0 0 0
9550 1 2 0 11.397046963658067 10.726940920347305 -2.32408306371023 0 0 0
6784 1 1 0 9.955138982000555 10.726311627950892 -1.5953182966312123 0 0 0
13283 1 2 0 7.2381319465771154 6.3450876978734225 -4.2628036371890383e-07 0 0 0
9566 1 2 0 13.811555093561227 6.463571947798436 -2.2254718126666053 0 0 0
9581 1 2 0 17.194187814601904 6.310716774356075 -2.2453410843172845 0 0 0
9554 1 2 0 13.470645786607806 9.2606445747008 -2.274521918905805 0 0 0
6792 1 1 0 14.226239375113297 7.959053379459256 -1.5939466900632455 0 0 0
9567 1 2 0 15.793629562432617 8.398807741687023 -1.819894881350487 0 0 0
6801 1 1 0 17.31860931589625 7.836535948914193 -1.5841793445659673 0 0 0
6785 1 1 0 12.899316171262786 10.687479202403246 -1.6608699453402658 0 0 0
13291 1 2 0 17.75192224388703 7.654954665871008 -1.5260451331978674e-07 0 0 0
9578 1 2 0 18.35628664036813 9.001308751896746 -2.226556595331837 0 0 0
6807 1 1 0 22.33392397050892 5.661292315718154 -1.624413523064764 0 0 0
9588 1 2 0 22.48006316926432 7.209921918660264 -2.2227988737423283 0 0 0
6805 1 1 0 23.565332868378892 8.335437898437947 -1.6416587835387193 0 0 0
9587 1 2 0 23.34653204460061 9.862986508316043 -2.2398176355598167 0 0 0
6799 1 1 0 18.725345633479183 10.53437129081162 -1.6396663804915073 0 0 0
13297 1 2 0 22.091728736220897 5.771218439856937 -5.562427624815826e-07 0 0 0
13295 1 2 0 23.447937155440005 8.369653894770648 -1.336872795898299e-07 0 0 0
13289 1 2 0 18.772558686204487 10.34894547295087 -6.130029733946727e-08 0 0 0
9598 1 2 0 27.554537553720266 7.158264123159458 -2.270611456706862 0 0 0
6814 1 1 0 28.485111966214745 5.966716204284381 -1.6440163444891507 0 0 0
9589 1 2 0 25.063501804157234 7.876953070148416 -2.154901542654266 0 0 0
6811 1 1 0 26.564782070636923 8.298910500005627 -1.6420851783751191 0 0 0
9597 1 2 0 26.99588914826378 9.778552144239116 -2.2489597184618377 0 0 0
13301 1 2 0 26.617925012364317 8.302216671343174 -2.9356034208884747e-07 0 0 0
13302 1 2 0 28.021817883971373 10.736776503936166 -1.724109361749347e-08 0 0 0
9602 1 2 0 29.97812740076524 6.211098964785122 -2.250266047757268 0 0 0
6817 1 1 0 31.494232818991726 6.243054735623076 -1.6437812900931128 0 0 0
9605 1 2 0 32.128219848585616 7.6368144249532595 -2.2377129844706913 0 0 0
6815 1 1 0 32.70657927729928 9.056180900948222 -1.6432988087594707 0 0 0
9606 1 2 0 34.21453366279979 9.153763348327365 -2.256342737605269 0 0 0
9604 1 2 0 31.959930117171275 10.400394025309867 -2.2211988991401097 0 0 0
6824 1 1 0 37.36172769370643 6.817818733678314 -1.6441064343272782 0 0 0
9619 1 2 0 36.663990612574125 5.441534568442131 -2.2283838574357313 0 0 0
9620 1 2 0 38.89043616074337 6.9096761876500965 -2.2333927650936545 0 0 0
6830 1 1 0 40.383231058037495 7.252298773035918 -1.6437273514010062 0 0 0
6820 1 1 0 35.70554645439159 9.390602205603441 -1.6433017346019607 0 0 0
9613 1 2 0 36.60721598467146 8.153063480059599 -2.233734309783795 0 0 0
13320 1 2 0 40.381750090582344 7.278573803126305 -4.231316936804604e-07 0 0 0
13310 1 2 0 35.724218792162596 9.402752537176271 -6.970796799266764e-08 0 0 0
9630 1 2 0 41.36395785087697 6.067381473551636 -2.2223600744407355 0 0 0
9639 1 2 0 45.69127197738749 6.6128830916188495 -2.218041805880096 0 0 0
9627 1 2 0 40.87339168105283 8.714679995960672 -2.226927543555295 0 0 0
9638 1 2 0 45.50820732408805 9.279417318579526 -2.2221443231967553 0 0 0
6835 1 1 0 46.378277463811 8.002505081429682 -1.6446405496023488 0 0 0
6829 1 1 0 41.50056829826889 10.12479126495273 -1.6446501058161018 0 0 0
9629 1 2 0 43.03156871800606 10.263464735171052 -2.2301779390893923 0 0 0
6837 1 1 0 44.5519498454292 10.490247321151326 -1.6441558691430398 0 0 0
13327 1 2 0 44.55198808804653 10.493957725024451 -1.5159504432798289e-07 0 0 0
13325 1 2 0 46.38519208310028 8.001071610972518 -4.503931484787488e-08 0 0 0
6842 1 1 0 51.3389444043195 5.95788821444719 -1.644623803789892 0 0 0
9641 1 2 0 50.43279068171484 7.212299303436333 -2.218524332082748 0 0 0
9637 1 2 0 47.920595593675756 8.144289379708752 -2.2196003910770417 0 0 0
6836 1 1 0 49.44714057780792 8.404212603761174 -1.644509691087618 0 0 0
9640 1 2 0 50.0085441124746 9.845934070760464 -2.2202419117244308 0 0 0
13332 1 2 0 51.34753327653021 5.955761033182527 -2.551190633641516e-07 0 0 0
6848 1 1 0 54.419501950608655 6.365032332752564 -1.644666614715189 0 0 0
9651 1 2 0 52.884720464808616 6.119842128526958 -2.214014741259076 0 0 0
9656 1 2 0 54.673601787725914 10.452339004707923 -2.2159439631210907 0 0 0
6846 1 1 0 55.618936964998824 9.222966012834423 -1.644664979551572 0 0 0
9657 1 2 0 54.9956359639153 7.803963531739655 -2.217469870774401 0 0 0
9658 1 2 0 57.161850378481816 9.408942877460328 -2.2138215428052703 0 0 0
13336 1 2 0 55.62595678990062 9.224434604200843 -8.29231806500899e-09 0 0 0
6860 1 1 0 60.61658058264456 7.17189763095368 -1.6447211573272076 0 0 0
9678 1 2 0 60.008305257595374 5.743794304876642 -2.2150058314250636 0 0 0
9680 1 2 0 62.160898235154754 7.356986007762142 -2.2119019475731587 0 0 0
6854 1 1 0 58.70184057453157 9.62284791838282 -1.6447525485953505 0 0 0
9670 1 2 0 59.66849444149537 8.404808725770275 -2.2112941702200204 0 0 0
13344 1 2 0 58.69656220963423 9.62269909393601 -8.544503723415499e-08 0 0 0
8320 1 1 0 63.70529103838496 7.55144848437926 -1.644894308912864 0 0 0
11901 1 2 0 64.64965811044182 6.306884323571988 -2.2047399966398613 0 0 0
8330 1 1 0 68.68045296397071 5.430230424819206 -1.6449677089998855 0 0 0
11900 1 2 0 64.28805843764762 8.997676928730032 -2.209064860599663 0 0 0
11912 1 2 0 68.81765312499346 9.617720883339063 -2.2014905449704116 0 0 0
8321 1 1 0 64.8380502057805 10.456492851829626 -1.6447959283040345 0 0 0
11903 1 2 0 66.37254144553263 10.703847005944668 -2.2119669130006545 0 0 0
11913 1 2 0 69.2375556048876 6.8942052712472455 -2.2029936671682635 0 0 0
11918 1 2 0 73.6940397054371 7.485325247724182 -2.193041317249789 0 0 0
8328 1 1 0 69.76202541450176 8.369541523747454 -1.644690883124996 0 0 0
11914 1 2 0 71.29342691052406 8.624129931571662 -2.2114892130073684 0 0 0
8331 1 1 0 72.83708974309005 8.805966493993836 -1.64502536744956 0 0 0
11917 1 2 0 73.40243846513434 10.280642467792235 -2.1932825062429973 0 0 0
14818 1 2 0 69.74594077638115 8.360251258414182 -2.6529107484834906e-08 0 0 0
14821 1 2 0 72.86695467298959 8.817765774319666 -1.714105480947618e-07 0 0 0
8335 1 1 0 74.61450674879968 6.206079860076888 -1.6443325790853973 0 0 0
11925 1 2 0 76.13937922463438 6.481607791045232 -2.210113978063924 0 0 0
8338 1 1 0 77.66883499962226 6.731986371428875 -1.6443907479911053 0 0 0
11930 1 2 0 78.56219571080834 5.4396418807722435 -2.198085188869051 0 0 0
11929 1 2 0 78.14389087860536 8.236223718097394 -2.1940619414764106 0 0 0
8339 1 1 0 78.66010291515862 9.724579312607945 -1.64442982728192 0 0 0
14825 1 2 0 74.57266476429305 6.197033409781477 -6.208053663139782e-07 0 0 0
14828 1 2 0 77.7193823417961 6.743216154577038 -3.534312611878868e-07 0 0 0
14829 1 2 0 78.61997435832609 9.718919512732658 -9.243980940682249e-07 0 0 0
11937 1 2 0 83.09318153981098 6.400661887357759 -2.20186773955388 0 0 0
11932 1 2 0 80.19125967449851 9.924291958592065 -2.220075041905334 0 0 0
11936 1 2 0 82.70579133092708 9.145776836721584 -2.2036039747069744 0 0 0
8342 1 1 0 83.63132490150119 7.883501840173392 -1.6443717005535141 0 0 0
11938 1 2 0 85.16550591724732 8.19822486800002 -2.1865523962203626 0 0 0
8343 1 1 0 81.68117956468355 10.32681767829026 -1.6445871998879142 0 0 0
14833 1 2 0 81.71785230295086 10.334947925978247 -2.9720817472165e-07 0 0 0
11945 1 2 0 87.61585233501086 7.217641365797905 -2.2029384925160467 0 0 0
8351 1 1 0 88.49060058678235 5.917722854016481 -1.6448090886588447 0 0 0
11952 1 2 0 90.02913618825761 6.141288979612326 -2.2088366392938186 0 0 0
8347 1 1 0 86.70524326762713 8.493445393279899 -1.645423042056504 0 0 0
11944 1 2 0 87.26077979092481 9.975736451896616 -2.2063087276946614 0 0 0
14841 1 2 0 88.45845782100653 5.9031620318117985 -7.215514386754669e-07 0 0 0
14837 1 2 0 86.74311797794557 8.521791005082752 -2.440963493971505e-07 0 0 0
8355 1 1 0 91.57057289520831 6.3397082870283885 -1.6468208347549547 0 0 0
11957 1 2 0 92.15375778177383 7.797457022548045 -2.2078356628177738 0 0 0
8356 1 1 0 93.17335855084838 8.985695163842259 -1.6403774716061656 0 0 0
11960 1 2 0 94.67733590434167 8.59506364014099 -2.1820849000062474 0 0 0
8361 1 1 0 96.2285075840315 8.690571119164929 -1.6431303180284855 0 0 0
11959 1 2 0 92.86704842802945 10.517022797814032 -2.210786023010301 0 0 0
14851 1 2 0 96.27468643762964 8.722754899873635 -1.8111838321750057e-07 0 0 0
11966 1 2 0 96.93561040329598 7.318235162749785 -2.2248143450722146 0 0 0
11968 1 2 0 96.93088579070216 10.077787313910125 -2.2293512567700264 0 0 0
8360 1 1 0 97.78667920358394 6.021248790983605 -1.6446564598171858 0 0 0
9096 1 2 0 99.31125179200912 6.189155811686758 -2.2271967647194937 0 0 0
6495 1 1 0 100.81082474672006 6.535070436808041 -1.645479667275953 0 0 0
9094 1 2 0 101.83684403874416 5.404108670755801 -2.26771948115335 0 1 0
9092 1 2 0 101.16843146529338 8.078589275601841 -2.148613347934349 0 0 0
6493 1 1 0 102.20612494650912 9.277289119006973 -1.644700079966075 0 0 0
9093 1 2 0 101.6652968802026 10.783159708491967 -2.177823948308058 0 0 0
14850 1 2 0 97.70659957799302 6.012723689802321 -4.905612032732247e-07 0 0 0
12983 1 2 0 102.2492489341862 9.368658887124814 -3.4884734102169166e-08 0 0 0
9551 1 2 0 8.95765189886189 11.800366454470936 -2.3139763400972986 0 0 0
6786 1 1 0 7.90729614857151 12.8650241430754 -1.6474393901535507 0 0 0
9555 1 2 0 8.567495402720237 14.221376773105431 -2.2707020748385465 0 0 0
6790 1 1 0 8.192257142156814 15.672009581000937 -1.6313402241628947 0 0 0
9559 1 2 0 12.146470363980733 16.344768642884677 -2.287916199274885 0 0 0
13274 1 2 0 10.153082864451216 11.069208080490585 -3.7890342416694243e-07 0 0 0
13276 1 2 0 7.982879828139666 12.84378128049635 -3.713579488864019e-08 0 0 0
9553 1 2 0 13.518656758108797 12.095674847882966 -2.285424466361683 0 0 0
9577 1 2 0 17.582958631548305 11.578160373233239 -2.2346812110590295 0 0 0
6787 1 1 0 14.158051875884853 13.394320069708767 -1.4924497706653579 0 0 0
9558 1 2 0 15.704902265754326 12.975179293111086 -1.3302231655994818 0 0 0
6800 1 1 0 17.296980515708103 13.023058623820146 -1.4941671547340039 0 0 0
9580 1 2 0 17.745908978081395 14.394916065285186 -2.311506081541675 0 0 0
9557 1 2 0 14.187544285346938 14.866802472868414 -2.2414002969023743 0 0 0
6803 1 1 0 17.802524953088913 15.856632502263468 -1.515593186838729 0 0 0
6788 1 1 0 13.675860213881302 16.3377584006214 -1.6525391763678194 0 0 0
13293 1 2 0 17.12708297424096 15.666331824621388 -8.964424553729741e-08 0 0 0
9579 1 2 0 20.090288803433204 11.363212061656299 -2.132919456162399 0 0 0
9583 1 2 0 22.43078730569879 12.341297385063365 -2.2234413721738226 0 0 0
6806 1 1 0 23.618563803765884 11.386387488184013 -1.647135522845674 0 0 0
6802 1 1 0 20.956636592393643 12.71042653078259 -1.6359890683344744 0 0 0
9582 1 2 0 20.786819015073846 14.274347173560031 -2.221296507546271 0 0 0
9584 1 2 0 19.33978644873152 16.35266718395104 -1.4080832776106496 0 0 0
6804 1 1 0 20.868061392726478 15.78556750461974 -1.5128823446450557 0 0 0
13292 1 2 0 20.84078458835156 12.77827870203871 -5.21234522257183e-08 0 0 0
9590 1 2 0 24.926494391100835 12.19005817884973 -2.2616346425421887 0 0 0
6812 1 1 0 27.953528407672522 10.969064647542371 -1.6224571392440001 0 0 0
9599 1 2 0 27.46388590183018 12.497125980777676 -1.9760977355906206 0 0 0
9600 1 2 0 29.45358266623542 10.890594935558875 -2.273553123820106 0 0 0
6813 1 1 0 26.03378286567608 13.229218109535436 -1.61338562882253 0 0 0
9601 1 2 0 26.138281046433967 14.754146760419053 -2.248909089838079 0 0 0
6867 1 1 0 26.878138850004827 16.117688952214667 -1.650211376506613 0 0 0
9690 1 2 0 28.434665106921905 16.19222128422142 -2.1805368534361396 0 0 0
13303 1 2 0 25.742358296050735 13.37252030463856 -1.2884695961408191e-08 0 0 0
6816 1 1 0 30.85754875623263 11.477511942417262 -1.6477403724471478 0 0 0
6822 1 1 0 31.756029688922187 14.417373923699238 -1.64472106933358 0 0 0
9607 1 2 0 31.111392994499266 13.005312423574672 -2.2156247337820263 0 0 0
9616 1 2 0 33.287593131434434 14.460244182056925 -2.234181136118372 0 0 0
6823 1 1 0 34.794942087690316 14.70630425127499 -1.6436000797594141 0 0 0
9617 1 2 0 30.98719324943545 15.759451051917832 -2.223148738875406 0 0 0
9612 1 2 0 36.20836160707377 10.83457124690022 -2.237446506219639 0 0 0
6821 1 1 0 36.69275932636058 12.287151992811994 -1.644086930509926 0 0 0
9628 1 2 0 40.62857308169548 11.398527432000263 -2.2257208081077438 0 0 0
9614 1 2 0 35.746871954660556 13.49799684959289 -2.2323950600572684 0 0 0
9615 1 2 0 38.20231075144945 12.494593512935623 -2.2434733697282754 0 0 0
6831 1 1 0 39.71885601803908 12.643352516894769 -1.6438436093666648 0 0 0
9631 1 2 0 40.25484835290535 14.081424642405844 -2.2293464073356906 0 0 0
9618 1 2 0 35.28831515700698 16.157044168426413 -2.2334268427951716 0 0 0
6871 1 1 0 40.74255017496235 15.538148774026716 -1.6441702165741474 0 0 0
13311 1 2 0 36.672385329038555 12.297977217099858 -7.523302699781471e-08 0 0 0
13361 1 2 0 40.72426171072776 15.552418113769745 -8.274594150113487e-08 0 0 0
9642 1 2 0 45.09771352497316 11.931088009380504 -2.2256274927920767 0 0 0
9646 1 2 0 44.71814234080914 14.582482046499615 -2.2233192811511895 0 0 0
6839 1 1 0 45.669002844289885 13.362466821649514 -1.6444632000505328 0 0 0
9697 1 2 0 42.26595799790604 15.720305947571635 -2.2323654934385733 0 0 0
6874 1 1 0 43.79641045174671 15.82275959797535 -1.6440301388255059 0 0 0
6838 1 1 0 50.626287725232274 11.26424430197938 -1.6446051192298912 0 0 0
9645 1 2 0 47.20101596794832 13.539780215666127 -2.225183521306997 0 0 0
6840 1 1 0 48.73377136756524 13.712531200782266 -1.6443402403277934 0 0 0
9643 1 2 0 49.68580950683748 12.493784237878398 -2.2199893952863503 0 0 0
9647 1 2 0 49.314663016954015 15.138260012888768 -2.2264968601533446 0 0 0
13328 1 2 0 50.63255423418282 11.270339834316323 -9.632097450874624e-08 0 0 0
13330 1 2 0 48.730430535546034 13.70617457428312 -1.6976694963632563e-07 0 0 0
9644 1 2 0 52.16557624190622 11.443825069101855 -2.218269804952908 0 0 0
6847 1 1 0 53.700611700044625 11.658917513963646 -1.6445780715180265 0 0 0
9659 1 2 0 54.27654561756757 13.094183174403867 -2.220663341542371 0 0 0
9672 1 2 0 53.87682123420031 15.73433025818785 -2.21766087190764 0 0 0
6855 1 1 0 54.85245866485519 14.529444627894565 -1.6446159181598097 0 0 0
9671 1 2 0 56.389048246118804 14.738281235975162 -2.216456185382058 0 0 0
13345 1 2 0 54.85693863936852 14.535496452974634 -7.437895923014468e-08 0 0 0
9669 1 2 0 59.285474112127986 11.061810670602217 -2.214919089189822 0 0 0
9673 1 2 0 58.887655867864815 13.717620952020209 -2.2128046893600612 0 0 0
6857 1 1 0 59.85946841936903 12.504641438539837 -1.6447642964181075 0 0 0
9675 1 2 0 61.396729057663485 12.732958230665695 -2.2131310725460134 0 0 0
8322 1 1 0 62.93957268894489 12.928549152823628 -1.6448208512734632 0 0 0
6856 1 1 0 57.927424751277336 14.938760392386715 -1.6446734392402438 0 0 0
13346 1 2 0 57.92669624658842 14.936451804463076 -5.785575726682092e-08 0 0 0
11902 1 2 0 63.87117555861252 11.679250499636103 -2.207725801975976 0 0 0
8329 1 1 0 67.91625118841652 10.896768123871794 -1.6448979408770272 0 0 0
11915 1 2 0 68.50722547398739 12.348128698656767 -2.202826329743977 0 0 0
11904 1 2 0 63.53840592549267 14.366970064712506 -2.210316426653312 0 0 0
8370 1 1 0 64.06843375519105 15.832243485880722 -1.6448096481194308 0 0 0
11980 1 2 0 65.5958043529126 16.121903777233076 -2.211813957097511 0 0 0
8371 1 1 0 67.1395475680172 16.319248820400475 -1.6448289027529872 0 0 0
11922 1 2 0 68.03788170419948 15.044358526917087 -2.2056108020578624 0 0 0
8332 1 1 0 73.88330823512115 11.783016503452508 -1.6447521500796 0 0 0
8333 1 1 0 69.01742838075391 13.829645584947338 -1.6447655722499408 0 0 0
11921 1 2 0 70.53967141682263 14.14673826732114 -2.209713726364182 0 0 0
8334 1 1 0 72.08314810143072 14.350144017483796 -1.6449525826893916 0 0 0
11919 1 2 0 72.94075566213114 13.037329165374391 -2.196801728811696 0 0 0
11923 1 2 0 72.68538756105882 15.808014843400796 -2.195808136671964 0 0 0
14822 1 2 0 73.8590686136678 11.765697454084188 -4.6791430415442745e-07 0 0 0
14824 1 2 0 72.10064970308267 14.368253166481699 -6.268511619712206e-08 0 0 0
11920 1 2 0 75.40190543120707 12.10729387202953 -2.2112106694948626 0 0 0
11931 1 2 0 77.80486375873198 11.045138111794433 -2.193209904876465 0 0 0
8340 1 1 0 76.93519886905985 12.356209577075758 -1.6451934960885992 0 0 0
11933 1 2 0 77.47690631018237 13.845402965123078 -2.1929266820665925 0 0 0
8374 1 1 0 77.935871788167 15.360501748754627 -1.6444604355557229 0 0 0
11985 1 2 0 79.42663441623911 15.778643645036235 -2.2189829493583315 0 0 0
14830 1 2 0 76.96686632671705 12.378085010038147 -1.0528303486722842e-07 0 0 0
11939 1 2 0 82.0178543737516 11.859034541703192 -2.201606254768001 0 0 0
8349 1 1 0 82.54921708829019 13.332234077248678 -1.6439508425317932 0 0 0
11949 1 2 0 81.74911015282925 14.674396677499335 -2.193763858561861 0 0 0
11948 1 2 0 84.05750543061137 13.523321484959675 -2.2547127940796607 0 0 0
8350 1 1 0 85.53692237403502 13.86567201650293 -1.6455776576903194 0 0 0
8375 1 1 0 80.95486735225982 16.024461803441966 -1.6446818254832902 0 0 0
8348 1 1 0 87.56843259939969 11.52064785047394 -1.6418753643792923 0 0 0
11947 1 2 0 88.9927559687663 12.175582017324535 -2.1939021030495747 0 0 0
11946 1 2 0 86.442714122648 12.599137406098938 -2.1887617306634546 0 0 0
8358 1 1 0 90.0836089511752 13.304146053373147 -1.6462505907556018 0 0 0
11950 1 2 0 85.95792706556921 15.356977883213682 -2.23790884052368 0 0 0
11963 1 2 0 89.90847160050852 14.854590095664351 -2.2301900218907376 0 0 0
14838 1 2 0 87.58321939049355 11.438377348356077 -2.468886336212294e-07 0 0 0
14848 1 2 0 90.02329659884772 13.341510101316242 -1.7244019699451642e-08 0 0 0
8357 1 1 0 92.8933480816037 12.082925540243785 -1.645810183646894 0 0 0
11961 1 2 0 91.52930068304313 12.789029616616345 -2.2272823062202307 0 0 0
11962 1 2 0 94.12542104908 13.046485657925915 -2.207872517635727 0 0 0
8377 1 1 0 95.50201617835332 13.794149923379713 -1.6417522132639513 0 0 0
11973 1 2 0 96.74931580375531 12.830013576009922 -2.159694194579097 0 0 0
11989 1 2 0 95.7245006247291 15.35748918266234 -2.199739241391259 0 0 0
14847 1 2 0 92.93415957543499 12.05058005561443 -1.8963786203738139e-07 0 0 0
8365 1 1 0 97.5789689301669 11.490772672531541 -1.6428301214693302 0 0 0
9226 1 2 0 99.12472899721057 11.641599053429708 -2.2068819694420214 0 0 0
6574 1 1 0 100.64168197682164 12.024434760143643 -1.6480526267793536 0 0 0
9224 1 2 0 100.97804060994854 13.59281187246264 -2.1872549468616325 0 0 0
9225 1 2 0 99.85494878369242 16.21508590590176 -2.1538338743971845 0 0 0
6573 1 1 0 101.06120368391299 15.187881921127628 -1.640622368068577 0 0 0
9212 1 2 0 102.37406758160122 16.05319918795267 -2.17592607264733 0 0 0
13064 1 2 0 100.67520576985535 12.035095439571435 -3.786464682347925e-09 0 0 0
9561 1 2 0 9.352736717682118 16.65341416521133 -2.2797886258311126 0 0 0
6789 1 1 0 10.818682521817227 17.024242977975643 -1.605933674984884 0 0 0
9562 1 2 0 11.064903737721256 18.59834872644643 -1.926024836722795 0 0 0
6884 1 1 0 7.300206919295343 19.401370861314348 -1.570880699905652 0 0 0
9715 1 2 0 8.72437032671158 19.87527037029174 -2.280702027003339 0 0 0
6883 1 1 0 10.243493716491237 19.958385205942825 -1.6001182115384636 0 0 0
9716 1 2 0 11.356507370975297 21.02767555098034 -2.174283790925458 0 0 0
13279 1 2 0 10.82023321598055 16.676436292175804 -4.5870287080754277e-07 0 0 0
13373 1 2 0 10.023323209919367 20.27860417666038 -4.6211751067012586e-07 0 0 0
9560 1 2 0 14.554058202026638 17.660716216562864 -2.158000313118869 0 0 0
6863 1 1 0 16.043083114328592 18.241567138964186 -1.6514148035398095 0 0 0
9585 1 2 0 17.05995926289216 17.097802423907762 -2.288118538105911 0 0 0
9684 1 2 0 16.551707519300653 19.71516206051151 -2.244247357817404 0 0 0
9742 1 2 0 15.09117503593979 21.786131088656557 -1.904999978849598 0 0 0
6901 1 1 0 16.637293811087183 21.264888929624753 -1.6087199241627497 0 0 0
13278 1 2 0 13.696630002543904 16.364736544801076 -2.037185844765236e-07 0 0 0
13353 1 2 0 16.081818717957216 18.33442603662277 -6.085243321253952e-07 0 0 0
6888 1 1 0 22.165335591456717 18.4502437593149 -1.5629258753295396 0 0 0
9586 1 2 0 21.56322208561949 17.07911807239544 -2.3062629070081426 0 0 0
9723 1 2 0 23.753895341407475 18.10009886152434 -1.6585489200618408 0 0 0
9724 1 2 0 21.912819475241726 19.962581655823406 -2.2283923288350587 0 0 0
6904 1 1 0 21.77290188930208 21.519660729229855 -1.6412363204677292 0 0 0
6889 1 1 0 25.279221794636037 18.635581204710917 -1.5658948537941013 0 0 0
9691 1 2 0 26.17652097098577 17.465943931975385 -2.2961185846826524 0 0 0
6908 1 1 0 25.88986869734566 21.452055079738805 -1.560474341877625 0 0 0
9725 1 2 0 25.30484763720147 20.109109222697445 -2.3310339273077507 0 0 0
9753 1 2 0 27.50151504849596 21.196161398226664 -1.6598691491595126 0 0 0
13379 1 2 0 25.79673303309346 18.765376516698222 -3.1897059168015505e-07 0 0 0
13398 1 2 0 25.34383377058931 21.45024583663885 -2.447655718410233e-07 0 0 0
6868 1 1 0 29.856173037144913 16.821567630626856 -1.6418442669302649 0 0 0
9692 1 2 0 30.055057010716826 18.37262812874807 -2.2051848826413933 0 0 0
9699 1 2 0 34.7829876369806 18.795626233062965 -2.226589726683605 0 0 0
9728 1 2 0 29.998748611516255 21.19267114860451 -2.231860145583201 0 0 0
6891 1 1 0 30.71855359114044 19.795453733782338 -1.6488950085503729 0 0 0
9727 1 2 0 32.27133446903964 19.774129992642052 -2.204235983363426 0 0 0
6892 1 1 0 33.801719657068176 19.988676330931224 -1.642812675533094 0 0 0
9729 1 2 0 34.320585819973715 21.43025208820214 -2.2361682680265726 0 0 0
13358 1 2 0 29.914991736008805 16.865947893868302 -1.528870241380471e-07 0 0 0
13381 1 2 0 30.65887184126716 19.828231460193443 -1.3716096591450452e-07 0 0 0
9696 1 2 0 39.778999125750765 16.750653959006303 -2.2222903260364135 0 0 0
6872 1 1 0 35.774528034945476 17.612031049660136 -1.6443391220677739 0 0 0
9698 1 2 0 37.296906137916686 17.807800097962833 -2.2309891947689207 0 0 0
6873 1 1 0 38.823140743382794 17.970634533518616 -1.644327231740753 0 0 0
9700 1 2 0 39.33079860825503 19.42168819991851 -2.2274495645293046 0 0 0
6913 1 1 0 39.804572465237136 20.886103498626685 -1.644154198585729 0 0 0
6895 1 1 0 44.84766219184132 18.701816128421747 -1.6441896126100732 0 0 0
9701 1 2 0 44.38047706472787 17.240563808573302 -2.2307730883999652 0 0 0
9733 1 2 0 46.376135969055866 18.913276269746426 -2.2217490320847104 0 0 0
9760 1 2 0 41.343031110705674 21.051538495662303 -2.2146315713230225 0 0 0
6914 1 1 0 42.887408462353925 21.100888004629358 -1.6441136043560383 0 0 0
9734 1 2 0 43.81738678105033 19.860030240803628 -2.2216466571754774 0 0 0
6878 1 1 0 49.85111759432522 16.58158492211471 -1.6444536673971875 0 0 0
9707 1 2 0 51.38324281501739 16.792146126928067 -2.220170737390906 0 0 0
6896 1 1 0 47.91634421159803 18.996457749437837 -1.6441817709894588 0 0 0
9708 1 2 0 48.849271950695936 17.76198667741082 -2.2214828929074666 0 0 0
9735 1 2 0 48.526548366954685 20.401303184433353 -2.2352895451803856 0 0 0
6917 1 1 0 49.055610411704144 21.837556407043905 -1.6440640794997086 0 0 0
13368 1 2 0 49.85271556226305 16.596534947079995 -9.436161095024633e-08 0 0 0
6879 1 1 0 52.92155296917032 16.954243887495295 -1.6445011176660853 0 0 0
9709 1 2 0 53.508138219241495 18.379205606483684 -2.226505242891414 0 0 0
6916 1 1 0 54.055338857365044 19.819212327010508 -1.644377759728 0 0 0
9764 1 2 0 53.076515176225726 21.015455859540527 -2.2230691097811546 0 0 0
9765 1 2 0 55.58478348785994 20.03464832358071 -2.2213809783029506 0 0 0
6922 1 1 0 57.11615710320866 20.24383441563595 -1.6445317850526344 0 0 0
13369 1 2 0 52.92035897323322 16.94476887515205 -1.1815123177759198e-06 0 0 0
9674 1 2 0 58.50360440842364 16.376793637146694 -2.2188656590683307 0 0 0
9843 1 2 0 63.0740939855416 17.028542178067507 -2.2115554807239928 0 0 0
6923 1 1 0 59.057277194195876 17.823426381106877 -1.6446176761160778 0 0 0
9774 1 2 0 58.08323135913636 19.031435687089353 -2.2160241858611913 0 0 0
9776 1 2 0 60.58974146702925 18.053769431287947 -2.2166150677560785 0 0 0
6966 1 1 0 62.12645782188327 18.2603763931484 -1.6446149188128618 0 0 0
9775 1 2 0 57.66401644169857 21.688811585894086 -2.2223926823905957 0 0 0
9842 1 2 0 62.69918730590541 19.70208841795348 -2.2171143071990262 0 0 0
6967 1 1 0 63.212266529611504 21.166158729124756 -1.6446590658110578 0 0 0
13413 1 2 0 59.05527820607366 17.82377365733514 -3.230462401551198e-08 0 0 0
13456 1 2 0 62.128572649523754 18.26285640642079 -5.317978562625836e-07 0 0 0
13457 1 2 0 63.209288996986594 21.165541594460358 -4.104848209284471e-08 0 0 0
11981 1 2 0 67.75643521036258 17.7571808728814 -2.204396679057966 0 0 0
8386 1 1 0 68.24379903516784 19.244585729187747 -1.6448863472411672 0 0 0
9844 1 2 0 64.7383926231232 21.441139730854193 -2.214649014668695 0 0 0
8401 1 1 0 66.27612535287598 21.648189777114037 -1.644515501177841 0 0 0
12004 1 2 0 67.21167898468264 20.4084458639691 -2.2121487692195845 0 0 0
14876 1 2 0 68.2425126070919 19.230548818010444 -8.57124745189983e-08 0 0 0
14891 1 2 0 66.28250665502702 21.655140828518384 -8.877812429708271e-08 0 0 0
12001 1 2 0 72.14635949158078 18.50526991622385 -2.2044062139154237 0 0 0
8385 1 1 0 73.15351155373675 17.31382804608045 -1.6448169356812679 0 0 0
12003 1 2 0 69.75503851492243 19.62266267924959 -2.207205189161461 0 0 0
8387 1 1 0 71.3032904967937 19.816600886716408 -1.6447316661438807 0 0 0
12005 1 2 0 71.96753617411275 21.24243739394936 -2.1965076878511813 0 0 0
14875 1 2 0 73.14772548613242 17.284426100926563 -2.1096358228047858e-07 0 0 0
14877 1 2 0 71.308809642733 19.838417357556168 -5.648887491631165e-07 0 0 0
11986 1 2 0 76.98647749336193 16.608012815677764 -2.188624070049608 0 0 0
12002 1 2 0 74.65071150845725 17.74097253678961 -2.2066101707091517 0 0 0
8390 1 1 0 76.1934023936793 17.961519986451034 -1.6445001654114502 0 0 0
12009 1 2 0 76.82989918948088 19.41357458642021 -2.1939304407686464 0 0 0
8403 1 1 0 77.34033370719432 20.91628643735348 -1.644434956425248 0 0 0
12026 1 2 0 78.85403558781253 21.332651370467108 -2.1823368089634476 0 0 0
11987 1 2 0 81.55949585315811 17.488797134324145 -2.194709588638261 0 0 0
8394 1 1 0 82.10007358818052 18.981227019200833 -1.6438444867713418 0 0 0
12015 1 2 0 83.62445658720054 19.31310248892157 -2.190565840626431 0 0 0
8395 1 1 0 85.17183773444636 19.52139057524004 -1.6445711287876434 0 0 0
8404 1 1 0 80.40107893131838 21.611836430850445 -1.6443790648914878 0 0 0
12016 1 2 0 81.22503201706762 20.278106326313086 -2.2019832276023092 0 0 0
8393 1 1 0 86.57992599454309 16.77197691982149 -1.6322874221824921 0 0 0
12014 1 2 0 88.14184373759718 16.831336692733135 -2.107962063684697 0 0 0
8397 1 1 0 89.64124741496977 16.381878968884436 -1.6313010118395301 0 0 0
12013 1 2 0 85.94479739388474 18.173827285075188 -2.2370455651658383 0 0 0
12019 1 2 0 90.59553078374728 17.60147554129679 -2.2273877328629803 0 0 0
8407 1 1 0 91.10470475890573 19.075598828906003 -1.6471490297094107 0 0 0
12017 1 2 0 85.82663949411474 20.964735077490662 -2.1776504254147193 0 0 0
12033 1 2 0 90.17024962862064 20.357269228079996 -2.1659565689147215 0 0 0
8419 1 1 0 89.74863416635498 21.889878494374056 -1.6442031028012563 0 0 0
14883 1 2 0 86.39237892034947 16.75465059079142 -2.7626903892199625e-09 0 0 0
8398 1 1 0 96.12144760766051 16.894958481218605 -1.646267871052737 0 0 0
12032 1 2 0 92.6403965030295 19.238678201600262 -2.2319325187702117 0 0 0
12020 1 2 0 95.03175157635158 18.022061519663787 -2.208691819223112 0 0 0
8408 1 1 0 94.18002853333178 19.32945142674531 -1.6425960792291916 0 0 0
12034 1 2 0 94.79989032802932 20.778829490099024 -2.1596770395861364 0 0 0
14888 1 2 0 96.10683541575514 16.84790905799433 -8.266329178282744e-08 0 0 0
14898 1 2 0 94.18043056244052 19.289025614332516 -2.2993305617407835e-08 0 0 0
9264 1 2 0 97.59203659380549 17.447459576764782 -2.187696335030142 0 0 0
6598 1 1 0 99.15392146421162 17.64262025000132 -1.643657533896036 0 0 0
9262 1 2 0 99.84837387448438 19.086905167618372 -2.17868527806144 0 0 0
9263 1 2 0 99.08576954459194 21.701325789434105 -2.1734665591582334 0 0 0
6597 1 1 0 100.27386469651799 20.64013522559674 -1.647505647580415 0 0 0
9260 1 2 0 101.77275380773557 21.232651976214317 -2.1658435674797687 0 0 0
13088 1 2 0 99.17855343716903 17.708637463392535 -1.9372168932249697e-07 0 0 0
6927 1 1 0 8.416116570091585 23.490543268830034 -1.6284234908024864 0 0 0
9745 1 2 0 9.911823741956047 23.067846594079693 -2.215946618659967 0 0 0
6902 1 1 0 11.39803632172461 22.587271014349398 -1.6358305001672595 0 0 0
9783 1 2 0 8.34609164029419 25.034903393845315 -2.1135788317968296 0 0 0
6945 1 1 0 8.883156817255012 26.484700543649012 -1.6358655489912328 0 0 0
9811 1 2 0 7.663654781274485 27.39823943516691 -2.2544495915899225 0 0 0
6944 1 1 0 11.636695481695408 27.438611335398228 -1.4796458008089155 0 0 0
9808 1 2 0 10.397640355863523 26.695408901758 -2.2855542843379255 0 0 0
13417 1 2 0 8.410716996684917 23.2054897391731 -1.228573858786158e-07 0 0 0
13434 1 2 0 11.881521931407121 26.699914261949708 -1.586197106300952e-07 0 0 0
9744 1 2 0 12.813290324073224 23.242169757767417 -2.240049630550925 0 0 0
6903 1 1 0 14.363964875443502 23.239021580039534 -1.6064589369223286 0 0 0
9743 1 2 0 17.754763421228347 22.373580015661656 -2.2048214450639807 0 0 0