LAMMPS data file via write_data, version 2 Aug 2023, timestep = 1559, units = metal

15648 atoms
2 atom types

6.359419711314829 198.59049599932752 xlo xhi
6.16321476989534 171.84776509833026 ylo yhi
-100 100 zlo zhi

Masses

1 28.085
2 15.999

Atoms # full

9632 1 2 0 9.872979337169893 6.958602558141749 -2.1761650539460184 0 0 0
6833 1 1 0 10.710242020956535 8.306290733186996 -1.6403192178741168 0 0 0
6893 1 1 0 6.990052340158378 10.755001837517927 -1.6447574370028606 0 0 0
9734 1 2 0 6.652759442907671 9.19806787211799 -2.1878690346244083 1 0 0
9630 1 2 0 10.172364809279905 9.750538322780471 -2.2252332319058996 0 0 0
9631 1 2 0 8.392229711878322 11.49551488851513 -2.149041637865194 0 0 0
6832 1 1 0 9.953415783436085 11.29152024571214 -1.638851343762934 0 0 0
13413 1 2 0 6.981232200443216 10.685159560481996 -1.42687832711881e-07 0 0 0
13353 1 2 0 10.600290574984259 8.26558667994579 -1.5372628438446442e-07 0 0 0
13352 1 2 0 10.10020235781935 11.287130332876515 -5.026879903014013e-08 0 0 0
6837 1 1 0 15.120930966866535 6.798649596514532 -1.5658148953943236 0 0 0
9629 1 2 0 14.820207332165568 8.397702223688986 -1.6875181033570235 0 0 0
9637 1 2 0 16.584989026205076 6.789102205077562 -2.3366241949921918 0 0 0
9628 1 2 0 12.292338266348683 8.378935538936704 -2.1733846941024044 0 0 0
6831 1 1 0 13.500548438138795 9.33940229973763 -1.5539711702409293 0 0 0
9616 1 2 0 14.05145515192311 10.699335394161201 -2.316325059087855 0 0 0
13357 1 2 0 15.234029495832166 6.267979561661319 -3.687205688547674e-07 0 0 0
13356 1 2 0 17.243937053507178 8.106857259082863 -2.1975720557960003e-08 0 0 0
6836 1 1 0 17.753632827199418 7.600633129459995 -1.4967021482028395 0 0 0
6841 1 1 0 21.416617262557274 6.514892115907035 -1.6579934064690627 0 0 0
9636 1 2 0 21.002550237487803 7.9960076764835835 -2.252873081183075 0 0 0
9635 1 2 0 18.48694275738683 8.894948874478585 -2.2142636941223133 0 0 0
6835 1 1 0 20.037047488413585 9.17358654290868 -1.6522365678534585 0 0 0
9633 1 2 0 20.582444124316247 10.602503371124797 -2.2423467357175286 0 0 0
13361 1 2 0 21.413792912538575 6.4911872699198 -1.0506119688453574e-07 0 0 0
13355 1 2 0 20.05761869362533 9.183056943487637 -1.1967471357034295e-07 0 0 0
9638 1 2 0 18.885388803100486 6.4453658868437484 -1.294661776744729 0 1 0
9646 1 2 0 22.922831829483954 6.423359752622921 -2.2689916739417697 0 1 0
9651 1 2 0 25.38876210227811 6.360768383691907 -2.2989927279229776 0 0 0
6844 1 1 0 26.757664928995098 6.969583531177596 -1.6234347630424706 0 0 0
9648 1 2 0 27.144324900103335 8.429888030085428 -2.2774559322459114 0 0 0
6843 1 1 0 27.573856061095654 9.90274829106903 -1.6475071264278274 0 0 0
9649 1 2 0 26.506770313617167 11.044653938381543 -2.1923441332507188 0 0 0
6847 1 1 0 32.59175473145993 7.980984569358444 -1.6460030754751054 0 0 0
9657 1 2 0 32.30292109924896 6.463214438687938 -2.256019489043329 0 0 0
9655 1 2 0 34.03925738187775 8.543871431778163 -2.18508866757098 0 0 0
9650 1 2 0 29.079146656858253 10.253502742857457 -2.2250535416578194 0 0 0
6849 1 1 0 30.62109268768335 10.303942722323223 -1.6423938426040998 0 0 0
9656 1 2 0 31.446339850242946 9.01011502353751 -2.244929496897353 0 0 0
13367 1 2 0 32.55342832231457 7.956735822671879 -1.29337359588122e-07 0 0 0
13369 1 2 0 30.617804747483248 10.253263287079163 -1.4624870882669084e-07 0 0 0
9659 1 2 0 36.44735525900286 7.53631035518453 -2.1789145225431557 0 0 0
6854 1 1 0 37.58666164871432 6.417436405498156 -1.6427017614769623 0 0 0
9669 1 2 0 38.97146506478788 7.117328818054006 -2.211920772017737 0 0 0
6848 1 1 0 35.564414133729976 8.856930006297718 -1.6416856054809685 0 0 0
9658 1 2 0 35.89391506436125 10.415904025286231 -2.1882442827174406 0 0 0
13368 1 2 0 35.67507767078316 8.909231189023517 -1.1248069567419291e-07 0 0 0
6863 1 1 0 40.36556690151547 7.7668103467049585 -1.6427389682534759 0 0 0
9684 1 2 0 41.55559095250727 6.801443598513494 -2.2409770213041114 0 0 0
6873 1 1 0 45.28807119395492 6.727351554257775 -1.638560645500921 0 0 0
9691 1 2 0 45.25284088091189 8.271519962992569 -2.179330342647665 0 0 0
9681 1 2 0 40.60336800937832 9.291738571777014 -2.228656401509474 0 0 0
6862 1 1 0 41.17943402585373 10.727861473692721 -1.6455526318519966 0 0 0
9690 1 2 0 45.4678633848974 10.836784634245245 -2.213845739089007 0 0 0
9683 1 2 0 42.714764808953746 10.934360431422217 -2.225716495654664 0 0 0
6869 1 1 0 44.11117004355511 11.595208938464099 -1.6440288985520954 0 0 0
6874 1 1 0 51.51660800022088 7.6376872491215355 -1.6426075789011352 0 0 0
9702 1 2 0 50.977625809185156 6.244904002128896 -2.28199901924048 0 1 0
6867 1 1 0 46.224278126617165 9.488892566078096 -1.6422282434381001 0 0 0
6868 1 1 0 49.241680613518014 9.677906573063279 -1.6436234990301386 0 0 0
9689 1 2 0 47.752293328889145 9.254335589970466 -2.229612942051414 0 0 0
9693 1 2 0 50.4917986872334 8.781411998903016 -2.2416265571945972 0 0 0
9692 1 2 0 49.463915438887405 11.19199411702302 -2.2178349304805955 0 0 0
13394 1 2 0 51.5059366807556 7.691706634734553 -3.616279488264696e-07 0 0 0
13387 1 2 0 46.30560338185978 9.518923154477305 -2.5785832866461517e-07 0 0 0
9703 1 2 0 53.05390225986796 7.690298819257973 -2.213182783088811 0 0 0
9709 1 2 0 54.20841361651724 11.278553362672943 -2.2234493062422027 0 0 0
6881 1 1 0 54.567824856414006 7.3579183492915785 -1.6412804422501641 0 0 0
6879 1 1 0 55.38845370417645 10.257289582693106 -1.6411096888365897 0 0 0
9710 1 2 0 55.3585033737199 8.696704207880403 -2.187899773065182 0 0 0
9711 1 2 0 56.870665849131456 10.72181973005868 -2.1876674738955733 0 0 0
13399 1 2 0 55.27816927299898 10.282123975298912 -3.6317678057049413e-07 0 0 0
6888 1 1 0 60.19569110661021 7.92531171705835 -1.6450783189560514 0 0 0
9723 1 2 0 59.91358113475899 6.388326997654044 -2.1945519309659782 0 0 0
9725 1 2 0 61.689442824916455 8.30835242047641 -2.2249020744125443 0 0 0
6882 1 1 0 58.40668467640993 10.45299008983133 -1.6424706300638678 0 0 0
9715 1 2 0 59.12934777307582 9.070233944076445 -2.2208502698474786 0 0 0
8335 1 1 0 63.22650707594229 8.381375373679752 -1.64389894309941 0 0 0
11917 1 2 0 64.08538827939297 7.091202835073941 -2.2183398115040176 0 0 0
11922 1 2 0 66.60875764033435 6.272803354055132 -2.223022124473055 0 0 0
8342 1 1 0 68.09787966383362 6.660057847527343 -1.643707344795834 0 0 0
11916 1 2 0 63.850980616706025 9.796373833326053 -2.2175559988669775 0 0 0
11924 1 2 0 68.1285727029813 10.708871197513142 -2.2425319672891613 0 0 0
8336 1 1 0 64.18099063912763 11.306385685038903 -1.6447267199253273 0 0 0
11925 1 2 0 68.54810969273429 8.124591967999981 -2.2344356269164374 0 0 0
14855 1 2 0 63.24199781854361 8.360217179914443 -1.360459253618022e-07 0 0 0
11937 1 2 0 73.7803607730202 6.505732209279456 -2.241082868025659 0 0 0
8340 1 1 0 69.11745771182997 9.546257616400258 -1.6439581333683815 0 0 0
11926 1 2 0 70.62880202777396 9.811514328014313 -2.2353633306245 0 0 0
8344 1 1 0 72.11874435697432 10.170053967404636 -1.6437834511766916 0 0 0
11931 1 2 0 73.16912238603199 9.06260901057948 -2.240313302018626 0 0 0
11930 1 2 0 72.58672610418462 11.625293738687999 -2.238817524065208 0 0 0
14860 1 2 0 69.13904365436164 9.545321993915021 -1.1988113354751388e-07 0 0 0
14864 1 2 0 72.11892255274428 10.176453305119717 -1.4803442611468357e-07 0 0 0
8348 1 1 0 74.23085015524133 7.966335424535092 -1.6441662448933831 0 0 0
11938 1 2 0 75.71419695776453 8.347745228807376 -2.2394727005964925 0 0 0
11943 1 2 0 78.15717524088834 7.348596756867326 -2.2328938689827673 0 0 0
8354 1 1 0 79.35394022866558 6.393415319233684 -1.6443784526046064 0 0 0
8351 1 1 0 77.22923588240539 8.563392373466634 -1.6435592848093954 0 0 0
11942 1 2 0 77.85823885013785 9.955839450696459 -2.2405758302650196 0 0 0
8352 1 1 0 78.33145789368963 11.408007809315531 -1.6443006946584673 0 0 0
14874 1 2 0 79.37150535644165 6.39207069826393 -4.660216576111176e-07 0 0 0
14871 1 2 0 77.21177016122165 8.583991500041025 -1.0319126298398196e-07 0 0 0
11948 1 2 0 80.78330767359705 6.977422675675714 -2.226156683303 0 0 0
8360 1 1 0 82.30951498851239 7.209688329029908 -1.6436826066155585 0 0 0
11955 1 2 0 83.0481507620678 8.551107963649816 -2.2323019439146785 0 0 0
8359 1 1 0 83.51194711531721 10.008607602121833 -1.6432486033674307 0 0 0
11957 1 2 0 84.97453142307967 10.490045495154348 -2.232924630860922 0 0 0
11956 1 2 0 82.35558309243633 10.991334976570402 -2.249009859702289 0 0 0
14879 1 2 0 83.55131150124865 10.014803707793073 -5.818254065157707e-07 0 0 0
11962 1 2 0 87.36256374608773 7.206262355647908 -2.1919724655246675 0 0 0
8362 1 1 0 88.29963148575906 8.442543526170194 -1.6430685529982167 0 0 0
11961 1 2 0 87.54757031197066 9.762493418744711 -2.246983055960969 0 0 0
8364 1 1 0 86.47760982286535 10.842723245775135 -1.6445370982063543 0 0 0
11960 1 2 0 89.84223609493232 8.440056356574173 -2.2308578135317627 0 0 0
14882 1 2 0 88.34774368971051 8.448798865280827 -2.7332575809227947e-07 0 0 0
14884 1 2 0 86.43339308296 10.853408597020618 -5.263662343436443e-07 0 0 0
11964 1 2 0 92.47204520854083 8.05822679010051 -2.2421900074547674 0 0 0
8369 1 1 0 93.63086870735796 7.043983772152012 -1.64462830609574 0 0 0
11974 1 2 0 95.09965836246968 7.6064246501105925 -2.174429165243308 0 0 0
8376 1 1 0 96.43170663609045 8.470634332601158 -1.6456811734127654 0 0 0
8363 1 1 0 91.27495281427652 9.01524820588967 -1.6425012355435762 0 0 0
11963 1 2 0 91.46819033051685 10.574677452605945 -2.155841687350631 0 0 0
11984 1 2 0 96.2798564568542 10.11433502404059 -2.1374611911525765 0 0 0
11967 1 2 0 93.95605225231199 11.451265344990334 -2.199292225771045 0 0 0
8377 1 1 0 95.51472808314048 11.583634005767742 -1.6397200683042643 0 0 0
14889 1 2 0 93.63993204246127 7.021837857087854 -2.1673552216993475e-06 0 0 0
14896 1 2 0 96.50442820977786 8.516700972012703 -3.7884048053876742e-06 0 0 0
14897 1 2 0 95.67237422470778 11.553613912912454 -2.5194073627034674e-06 0 0 0
11985 1 2 0 97.75050681306753 7.492145965540708 -2.1420327076829127 0 0 0
8378 1 1 0 98.83142262728533 6.27000995634313 -1.6481191324807378 0 0 0
6544 1 1 0 101.98779805720696 6.857063959879184 -1.6445275241480903 0 0 0
9173 1 2 0 100.40071187845102 6.642841561161429 -2.159555692893137 0 0 0
14898 1 2 0 98.79528536957893 6.244852071038948 -3.7933175911939275e-06 0 0 0
13064 1 2 0 101.96140889724843 6.844918272540591 -1.193589559428836e-07 0 0 0
9618 1 2 0 10.988588139671506 12.47898670213943 -2.2125830890190725 0 0 0
9729 1 2 0 7.788394508070434 16.98069303893635 -2.268500892411635 0 0 0
6892 1 1 0 6.53188813087546 16.085929307991805 -1.613808138598709 1 0 0
9624 1 2 0 10.265885453586051 16.538866550062696 -1.703312187093381 0 0 0
6828 1 1 0 11.910776418579868 16.588301535670556 -1.575159341105078 0 0 0
13412 1 2 0 6.812852684116793 15.901988413810306 -2.5050846110845577e-06 1 0 0
9614 1 2 0 13.672991402339836 13.196270411829321 -1.978612514360421 0 0 0
6824 1 1 0 14.767367004651897 12.033856035182337 -1.6209192864249085 0 0 0
9615 1 2 0 16.25481810162125 12.477772329772652 -2.2279882525319397 0 0 0
6825 1 1 0 12.11335680614698 13.597503344898934 -1.6259749805603216 0 0 0
9617 1 2 0 12.167417086482466 15.116546025378746 -2.302016270865899 0 0 0
6826 1 1 0 17.563741156032624 13.333993797976326 -1.6479958040054132 0 0 0
9619 1 2 0 17.467668472844977 14.882236125007148 -2.2428757446063585 0 0 0
13344 1 2 0 14.973458777180321 11.818628416741749 -5.609784414062899e-07 0 0 0
13348 1 2 0 12.406470082372945 16.548532069521997 -1.6686043368398745e-06 0 0 0
9620 1 2 0 19.01232943053408 12.73342973088165 -2.1916895657822217 0 0 0
6834 1 1 0 20.45979141696317 12.137204556117236 -1.6450750815749347 0 0 0
9634 1 2 0 21.797530786839506 12.923831414402867 -2.2225611176753475 0 0 0
6838 1 1 0 23.17752223418628 13.638276890060412 -1.6458682570559788 0 0 0
9640 1 2 0 23.148410469993507 15.185180563424204 -2.221571091687604 0 0 0
6827 1 1 0 17.845071413501127 16.36671825281749 -1.637932522805241 0 0 0
9622 1 2 0 19.302660407233184 16.89300175202323 -2.205792101122466 0 0 0
6839 1 1 0 23.068872589371345 16.72211195407068 -1.6439280007152646 0 0 0
13354 1 2 0 20.478588337595518 12.182397067092856 -8.076111364810147e-07 0 0 0
13359 1 2 0 23.03269015999928 16.688415745018386 -4.1951974173247047e-07 0 0 0
9641 1 2 0 24.556936277499037 12.906231746021106 -2.216594564629151 0 0 0
6845 1 1 0 26.07168368147852 12.54734212015051 -1.6433718629278662 0 0 0
9653 1 2 0 27.183677378206788 13.63488110372223 -2.2053215340023336 0 0 0
6895 1 1 0 28.44707387750677 14.538005323232221 -1.646465435203533 0 0 0
9736 1 2 0 28.229254404369403 16.05076711853937 -2.2645479972988416 0 0 0
13365 1 2 0 26.055353842934487 12.577375152433913 -9.872335403554577e-09 0 0 0
9660 1 2 0 31.329868264433305 11.702413825216064 -2.16386023840057 0 0 0
9664 1 2 0 29.883719593921136 13.970612734807698 -2.2309846785989786 0 0 0
6851 1 1 0 31.2603209838665 13.271412775756932 -1.6420058764910508 0 0 0
9663 1 2 0 32.57853561219506 14.077980109889266 -2.2224930422619393 0 0 0
6852 1 1 0 34.09750275229433 14.419045226334802 -1.6461823409259644 0 0 0
9665 1 2 0 34.45714933007838 15.961016759929255 -2.1952916281522796 0 0 0
9661 1 2 0 35.08168831455774 13.173634282354588 -2.174715850844665 0 0 0
6850 1 1 0 36.137401583052494 11.985554173463942 -1.6452571483243517 0 0 0
9662 1 2 0 37.61304336884282 12.45947370147579 -2.2223932562705615 0 0 0
6864 1 1 0 39.066973657513024 12.975949953897063 -1.6441401055032157 0 0 0
9682 1 2 0 40.23039061692465 11.951802214977215 -2.215233063512493 0 0 0
9685 1 2 0 39.3647672907323 14.496371364191738 -2.2187002142101213 0 0 0
6901 1 1 0 39.89308644521321 15.953919292949161 -1.644754833753941 0 0 0
9744 1 2 0 38.917921623364464 17.158443298068526 -2.223074518914929 0 0 0
13384 1 2 0 39.05706076612823 12.98916562074311 -7.860660535066021e-08 0 0 0
13421 1 2 0 39.87440744856211 15.96766650754096 -2.344145953371641e-07 0 0 0
9694 1 2 0 44.1990903529785 13.137432284140857 -2.2034577313255252 0 0 0
6871 1 1 0 44.98645402576098 14.46984337014375 -1.6434752621485915 0 0 0
9745 1 2 0 41.427660349976215 16.17565000686774 -2.215206543442803 0 0 0
9698 1 2 0 44.1221879798898 15.756983590358109 -2.2189413866982077 0 0 0
6904 1 1 0 42.886219063759384 16.697541522780444 -1.6445938436220422 0 0 0
13424 1 2 0 42.888717800140164 16.675372439999908 -2.3071655002554744e-07 0 0 0
6870 1 1 0 50.188892093889734 12.539831265939048 -1.6416215081749517 0 0 0
9697 1 2 0 46.53541229153187 14.410038000351458 -2.221106102422383 0 0 0
6872 1 1 0 48.04879186723068 14.745211791624252 -1.6445323577875606 0 0 0
9695 1 2 0 49.23744136087463 13.755708019397085 -2.2281472556993505 0 0 0
9699 1 2 0 48.39179639524395 16.232627092172034 -2.235705640770759 0 0 0
9696 1 2 0 51.73398760339378 12.504428385316626 -2.2230114930454894 0 0 0
6880 1 1 0 53.28374508972267 12.538563573890547 -1.6456632318101916 0 0 0
9712 1 2 0 53.88810333527672 13.95655836394026 -2.2204646228101224 0 0 0
6883 1 1 0 54.21779217266174 15.462431946326374 -1.6437110172724103 0 0 0
9717 1 2 0 53.092780934305736 16.541698106908648 -2.2156660139746145 0 0 0
9716 1 2 0 55.73976646959168 15.765286242803668 -2.2109225149801564 0 0 0
13403 1 2 0 54.18738487169431 15.498351621324217 -3.3311401557409755e-07 0 0 0
9714 1 2 0 59.17817674405369 11.800972511308245 -2.19932309063575 0 0 0
9718 1 2 0 58.121362796435136 14.36475575700571 -2.2222548350629645 0 0 0
6885 1 1 0 59.30166802113369 13.350382065861211 -1.6439851006228925 0 0 0
9720 1 2 0 60.77010006885492 13.83774249896042 -2.21374474173641 0 0 0
8337 1 1 0 62.311659190612 13.734619605703504 -1.6435667616032033 0 0 0
6884 1 1 0 57.290911639448126 15.681679150141886 -1.644415836145676 0 0 0
9719 1 2 0 58.03797536892779 17.035765721039763 -2.2107476810036863 0 0 0
13405 1 2 0 59.24798908207734 13.372671100296731 -1.175534845310636e-07 0 0 0
14857 1 2 0 62.31553886648622 13.691776001516038 -8.289063989052203e-08 0 0 0
13404 1 2 0 57.27835699809926 15.644515311299314 -1.7628321984456934e-07 0 0 0
11919 1 2 0 65.66137075927152 11.723688696422903 -2.232399456142842 0 0 0
11918 1 2 0 63.07923173869075 12.39183523645079 -2.2259245291000145 0 0 0
8341 1 1 0 67.18393965923903 11.908984812339664 -1.6437409202379654 0 0 0
11920 1 2 0 63.08552809915907 15.071607842586458 -2.212669823921794 0 0 0
11927 1 2 0 67.79824535184105 13.311080933077948 -2.2333930727853883 0 0 0
8346 1 1 0 68.25306525016995 14.772699682648065 -1.6439065620832027 0 0 0
8384 1 1 0 63.3284421772892 16.59731314170603 -1.6442076598348254 0 0 0
11995 1 2 0 64.79155637401146 17.090485040915027 -2.2274888899041896 0 0 0
8385 1 1 0 66.33184946114773 17.140012369231936 -1.644155617149417 0 0 0
11935 1 2 0 67.17389963793643 15.858603486699662 -2.2357878247678475 0 0 0
14861 1 2 0 67.18340560912179 11.893072379294045 -1.6157199994789205e-07 0 0 0
14904 1 2 0 63.33237816712314 16.617686720501855 -7.702875735205924e-08 0 0 0
14905 1 2 0 66.32265137224671 17.12390196942847 -6.85976548831239e-08 0 0 0
8345 1 1 0 73.19816977829691 13.026077321843328 -1.644017228512356 0 0 0
11934 1 2 0 69.74748171320442 15.122777973940934 -2.236605723606268 0 0 0
11932 1 2 0 72.25546452753538 14.226219139550413 -2.240813811705579 0 0 0
8347 1 1 0 71.25833541528358 15.383848938192681 -1.6440420505624902 0 0 0
11936 1 2 0 71.81452379123364 16.809895212154167 -2.2353230994688555 0 0 0
14865 1 2 0 73.21712215551413 13.0278837314365 -1.302569709686553e-07 0 0 0
14867 1 2 0 71.25181430363945 15.372982975454594 -7.102997601892526e-08 0 0 0
11944 1 2 0 77.27146868197259 12.501424007748241 -2.2452632116501907 0 0 0
11945 1 2 0 79.81826374099234 11.770809738561551 -2.243923985387857 0 0 0
11933 1 2 0 74.71647932123426 13.224098994908763 -2.2396308826677385 0 0 0
8353 1 1 0 76.20209042518478 13.584868841818317 -1.6435434696454756 0 0 0
11946 1 2 0 76.65095632411078 15.040941178155515 -2.2412957631962627 0 0 0
8390 1 1 0 77.34758648154303 16.396403570947264 -1.644015282221996 0 0 0
12003 1 2 0 78.8781860892761 16.482922094085495 -2.2400699246167637 0 0 0
14873 1 2 0 76.20018888062762 13.57994704423155 -3.105562330803736e-07 0 0 0
14910 1 2 0 77.36183222267867 16.4079657363963 -9.601120490089668e-08 0 0 0
8361 1 1 0 81.31279039209277 12.088981024715515 -1.6431854512643835 0 0 0
8389 1 1 0 82.52296272502034 14.870134722172256 -1.6438059900325328 0 0 0
11959 1 2 0 81.8666911781115 13.501846895048416 -2.251005968612031 0 0 0
12002 1 2 0 84.04297860605446 15.07946333373865 -2.2403403679333107 0 0 0
8392 1 1 0 85.46248108904126 15.666843095300113 -1.6438062306669519 0 0 0
8391 1 1 0 80.3330331627937 16.956916038399832 -1.6428554914045086 0 0 0
12001 1 2 0 81.5482311908936 16.0406177368556 -2.2395308650112598 0 0 0
14881 1 2 0 81.27850705717908 12.08859887173589 -3.3382585421192395e-07 0 0 0
14909 1 2 0 82.55347865521874 14.85588931025952 -6.053114618943725e-08 0 0 0
14912 1 2 0 85.43529080147553 15.625585545806452 -1.3377984698444347e-07 0 0 0
11965 1 2 0 87.05520579572689 12.261861061663396 -2.2356141021405147 0 0 0
8366 1 1 0 87.72153647200903 13.64238352825634 -1.6426862305890813 0 0 0
11969 1 2 0 86.73991201843299 14.822013944282551 -2.2273698132241635 0 0 0
11968 1 2 0 89.24212571752143 13.919382984940567 -2.2189916183987104 0 0 0
8367 1 1 0 90.73649188648454 14.348573623226146 -1.646476804819219 0 0 0
12006 1 2 0 85.66989926079874 17.18651446751821 -2.2303744264543846 0 0 0
14886 1 2 0 87.76252454839036 13.610914598918322 -1.8224098466365898e-08 0 0 0
11970 1 2 0 91.11861780459817 15.860600383584439 -2.209168928494257 0 0 0
14887 1 2 0 90.74618953274218 14.367540751744167 -8.511910847124113e-08 0 0 0
8365 1 1 0 92.44238175528292 11.808300459040721 -1.6399947260108956 0 0 0
11966 1 2 0 91.83333763998503 13.238470568431989 -2.220515837529174 0 0 0
11986 1 2 0 95.88157771060254 13.182169274099182 -2.1063154366513523 0 0 0
8379 1 1 0 96.39393504412675 14.748578743506327 -1.6436586621511537 0 0 0
11989 1 2 0 95.63425817900765 16.251571335262124 -2.1149565003857056 0 0 0
14885 1 2 0 92.49944083105625 11.906513544859024 -4.224190015215589e-07 0 0 0
14899 1 2 0 96.30376142160932 14.799884465376305 -2.6295894938314985e-06 0 0 0
6539 1 1 0 101.73805499377092 12.290129110661205 -1.6436834850165483 0 0 0
9165 1 2 0 100.20193880251396 12.860908846426316 -2.1111851473092598 0 0 0
8380 1 1 0 99.50451534776342 14.336235847708721 -1.6479927593093302 0 0 0
11988 1 2 0 97.96739551229139 14.659635290746015 -2.1990407348254775 0 0 0
11990 1 2 0 100.33423330889386 15.658263444639275 -2.239055858887107 0 0 0
8399 1 1 0 101.40531395414413 16.759163817294823 -1.622970439146076 0 0 0
13059 1 2 0 101.68879344950658 12.166200693848001 -3.822740025787437e-06 0 0 0
14900 1 2 0 99.47506747756815 14.330776223659473 -3.5907498498477695e-06 0 0 0
6891 1 1 0 9.126854026782398 17.69841825075911 -1.552116176189611 0 0 0
9730 1 2 0 10.066959249963931 19.00538498455809 -2.072031826572977 0 0 0
6957 1 1 0 6.51881812741444 20.5836547108612 -1.6499799709320095 0 0 0
9763 1 2 0 8.053647500141844 20.313552964818992 -2.1831570708222205 0 0 0
6913 1 1 0 9.598430109706348 20.54811993159536 -1.6244959177099725 0 0 0
9762 1 2 0 10.566963805648058 21.79654374047729 -2.19564333399432 0 0 0
13433 1 2 0 9.556189897177651 20.812275472896538 -3.7887561083311684e-06 0 0 0
13477 1 2 0 6.419613615080846 20.640171344443694 -3.8023962473944974e-06 0 0 0
9831 1 2 0 6.40363975343547 22.043425371224885 -2.3754620747010717 1 0 0
9623 1 2 0 12.668530228795031 17.93206468636155 -2.224959540482413 0 0 0
9621 1 2 0 16.74958283591397 17.480060472220003 -2.1599260660298865 0 0 0
6829 1 1 0 13.42426110572962 19.3127069829918 -1.64704386630332 0 0 0
9625 1 2 0 14.957040051281531 19.32222946918 -2.2533247416642355 0 0 0
6830 1 1 0 16.443220902161404 19.022429749998434 -1.6423698381659875 0 0 0
9627 1 2 0 17.49031487047339 20.191379213721145 -2.191149624764253 0 0 0
9626 1 2 0 12.928778960225497 20.822793260478115 -2.1516984230057234 0 0 0
6914 1 1 0 12.133783958866038 22.194691867427498 -1.6434650441026946 0 0 0
13434 1 2 0 12.101717756102671 22.322154854081106 -3.5243545800484398e-06 0 0 0
13350 1 2 0 16.4491977169577 19.067637615461077 -3.980792919408904e-08 0 0 0
6840 1 1 0 20.351862603715748 18.040308317133587 -1.6439001797475175 0 0 0
9642 1 2 0 21.789507998238975 17.551245330762374 -2.2591481765500725 0 0 0
9644 1 2 0 20.068517938909334 19.592455787068964 -2.1583135103398616 0 0 0
6915 1 1 0 18.968805434453625 20.73351681017702 -1.6418461708974512 0 0 0
9765 1 2 0 19.356943765949854 22.24693001259873 -2.2157866684005176 0 0 0
13360 1 2 0 20.350608723623395 18.02907591395027 -2.398928998846459e-07 0 0 0
13435 1 2 0 18.958727337206632 20.828123195755488 -1.3324190786724488e-07 0 0 0
9643 1 2 0 24.368729990202144 17.52949423619755 -2.2320091743131023 0 0 0
6896 1 1 0 28.111793482302 17.56385250946447 -1.6379926154559148 0 0 0
6897 1 1 0 25.31526982689407 18.730400357148515 -1.6434942249888835 0 0 0
9739 1 2 0 24.803698990626177 20.19158735578685 -2.2121735452792075 0 0 0
9737 1 2 0 26.812882893301254 18.38427201713107 -2.229633796429678 0 0 0
6932 1 1 0 24.97760268276685 21.735572938159915 -1.6443522030518907 0 0 0
9792 1 2 0 23.65113221016841 22.590376288283114 -2.1658588679409263 0 0 0
9793 1 2 0 26.441912674872217 22.301539650276606 -2.2082573129343053 0 0 0
6938 1 1 0 28.00354036278286 22.264679936412573 -1.6408730186046503 0 0 0
9779 1 2 0 28.893617028357 21.014983633948255 -2.252475330865889 0 0 0
13416 1 2 0 28.022552018728003 17.47796678066335 -5.841877461495891e-07 0 0 0
13458 1 2 0 27.946136700270905 22.195713375706024 -6.320816378319965e-08 0 0 0
13417 1 2 0 25.305627721393595 18.75267956739382 -5.2010895340974415e-08 0 0 0
9738 1 2 0 29.434249109588656 18.399355952170204 -2.1375672532794856 0 0 0
6923 1 1 0 29.934255648048012 19.886959992110427 -1.6390905811217715 0 0 0
9778 1 2 0 31.453265774269152 20.008432416797046 -2.2495871864515884 0 0 0
9747 1 2 0 33.82465545837605 18.723279393993703 -2.1964166844524073 0 0 0
6924 1 1 0 32.98882153741617 20.058285723489025 -1.6453874952084497 0 0 0
9780 1 2 0 33.557357163090636 21.51798295121313 -2.1942835919698105 0 0 0
13443 1 2 0 29.969218296303108 20.026772325360785 -2.551044640410102e-07 0 0 0
13444 1 2 0 33.01681509915749 20.03891265400527 -1.9583138631937973e-07 0 0 0
6902 1 1 0 34.823228174148596 17.499511720408773 -1.644307999767132 0 0 0
9746 1 2 0 36.339889855800315 17.86587132159313 -2.195037881077231 0 0 0
6903 1 1 0 37.84153511197171 18.274693298925104 -1.6437660607460118 0 0 0
9748 1 2 0 38.237818950901534 19.77650005834145 -2.2172987836177906 0 0 0
6941 1 1 0 38.738224340465656 21.248515838038866 -1.6452776164272302 0 0 0
9805 1 2 0 37.73102769734329 22.42950813080521 -2.2288090135781826 0 0 0
9806 1 2 0 40.27241605375052 21.514576852131373 -2.203875684599195 0 0 0
13422 1 2 0 34.762222020162476 17.486713949119896 -1.1381816103282221e-08 0 0 0
6928 1 1 0 43.78699449101009 19.613597581545804 -1.6443433587441818 0 0 0
9749 1 2 0 43.09256407339745 18.23008003879869 -2.214552051107571 0 0 0
9786 1 2 0 45.341661790832006 19.590921033512767 -2.2123084711216676 0 0 0
6944 1 1 0 41.76161437419512 21.971797514054273 -1.6447143339193793 0 0 0
9787 1 2 0 42.909339290766745 20.906242838507332 -2.207026238605155 0 0 0
13448 1 2 0 43.79595074194349 19.64287019250877 -5.8164761273901654e-09 0 0 0
6911 1 1 0 49.01396677985447 17.625863239156832 -1.643441620032181 0 0 0
9759 1 2 0 50.5643405376458 17.69257197089686 -2.214539047870991 0 0 0
6929 1 1 0 46.87064489225475 19.85810044518036 -1.643845549022687 0 0 0
9760 1 2 0 48.005791832065604 18.802270933051094 -2.2230739067990903 0 0 0
9788 1 2 0 47.281027898442375 21.327704562673897 -2.236790863783166 0 0 0
6912 1 1 0 52.11622897222824 17.758188958592754 -1.6445752496971102 0 0 0
9761 1 2 0 52.71424655950461 19.17001036134919 -2.2311438801710533 0 0 0
9811 1 2 0 51.96059135309984 21.721596439439857 -2.205436995345155 0 0 0
6945 1 1 0 53.10414630849093 20.654529325534067 -1.6445726717753542 0 0 0
9823 1 2 0 57.085848783737035 19.537340146712257 -2.2114038038828543 0 0 0
6952 1 1 0 56.201479388212974 20.820543813543733 -1.643959936022568 0 0 0
9812 1 2 0 54.64483433372425 20.90648132146256 -2.208554591423262 0 0 0
9824 1 2 0 56.98738822303105 22.141501893037425 -2.22286675014435 0 0 0
13432 1 2 0 52.113565521429415 17.724553464692395 -7.33287322204484e-08 0 0 0
13465 1 2 0 53.102887144545875 20.69496250933132 -2.2346420646467587e-07 0 0 0
13472 1 2 0 56.17013298347469 20.792211645951475 -6.493399847084989e-07 0 0 0
9890 1 2 0 62.125157086622536 17.57093035688328 -2.217812226201891 0 0 0
6953 1 1 0 58.30022874362936 18.56048468088698 -1.6445925231271818 0 0 0
9825 1 2 0 59.79639393026141 18.99197648434089 -2.2148888723597495 0 0 0
6995 1 1 0 61.349425628607236 18.913204969415474 -1.6444631015881828 0 0 0
9889 1 2 0 62.22850098979333 20.189793590131757 -2.206832993498794 0 0 0
9887 1 2 0 61.256904687736096 22.596407251246056 -2.211548602175372 0 0 0
6996 1 1 0 62.52631455353787 21.70956105357903 -1.6440829115687947 0 0 0
13473 1 2 0 58.29102251817667 18.59501615299194 -2.018119266726532e-07 0 0 0
13515 1 2 0 61.31863382468364 18.904890752732978 -7.386075383119407e-08 0 0 0
13516 1 2 0 62.55488557841379 21.745441226449962 -1.8084064345739717e-08 0 0 0
11996 1 2 0 67.09134221540265 18.476178576837718 -2.2251479978423303 0 0 0
8411 1 1 0 67.48331694643382 19.962061667102486 -1.643547308271868 0 0 0
9891 1 2 0 63.98519887978716 22.24692127393665 -2.2233530825249948 0 0 0
8412 1 1 0 65.54034704393806 22.292616017000817 -1.6444698909867261 0 0 0
12031 1 2 0 66.32193817222333 20.96714868964596 -2.2245499482207394 0 0 0
14932 1 2 0 65.49761865641445 22.311583222379554 -3.3747811112253926e-07 0 0 0
12032 1 2 0 68.96000460672008 20.405098919356814 -2.2299387143342444 0 0 0
8401 1 1 0 72.39860670268973 18.2252609840826 -1.643980711640718 0 0 0
12019 1 2 0 71.42616455457137 19.404570485787872 -2.2378890581918403 0 0 0
12018 1 2 0 73.91687428240503 18.461300748881953 -2.2339281503661494 0 0 0
8413 1 1 0 70.48758127980696 20.614166720544898 -1.644523062354647 0 0 0
12034 1 2 0 71.13743208318958 22.009307416826022 -2.2282869227280973 0 0 0
14933 1 2 0 70.47378513303445 20.610254741099425 -3.609202173670832e-07 0 0 0
12004 1 2 0 76.45651611117401 17.63348211723021 -2.2398660122009364 0 0 0
8402 1 1 0 75.42345917718161 18.75760820719516 -1.6441092800983712 0 0 0
12020 1 2 0 75.98460694043517 20.1758530226069 -2.2448689783368994 0 0 0
8424 1 1 0 76.52964217758917 21.599387785100664 -1.6431752361005276 0 0 0
12050 1 2 0 78.01960464841906 21.94693919992644 -2.2430324350826103 0 0 0
8427 1 1 0 79.53389800398615 22.15870682548063 -1.6432774964912842 0 0 0
12049 1 2 0 75.49405927332432 22.71665588906124 -2.2313179640146306 0 0 0
14944 1 2 0 76.55809047141919 21.576226318777554 -7.094955765222484e-08 0 0 0
14947 1 2 0 79.49440555097497 22.1919727954776 -1.692707999727985e-07 0 0 0
12005 1 2 0 80.6561667376133 18.43700659178605 -2.247805712282305 0 0 0
8415 1 1 0 81.38509329157137 19.765319265694696 -1.6446576803305788 0 0 0
12036 1 2 0 82.903017098204 19.881976194363062 -2.2674287389962777 0 0 0
12037 1 2 0 80.47172333129096 20.971246312859744 -2.2452392820663323 0 0 0
8416 1 1 0 84.25954768644989 20.556585200208712 -1.6330056891997164 0 0 0
12038 1 2 0 84.26173552376805 22.152784416396553 -2.0503503597363193 0 0 0
12022 1 2 0 85.59881532711039 19.807049642889705 -2.2379977847999655 0 0 0
8403 1 1 0 86.4344043582397 18.514568586813983 -1.64292298783999 0 0 0
12021 1 2 0 87.9933307983375 18.5593254518517 -2.1766657462147667 0 0 0
8404 1 1 0 89.32195566232683 19.395171976520633 -1.6426402081440419 0 0 0
12011 1 2 0 90.65955836986511 18.56852442019621 -2.209449793009904 0 0 0
12023 1 2 0 89.13776048062692 20.961089562910864 -2.2030701023611674 0 0 0
8428 1 1 0 88.36825779255643 22.334144974477454 -1.6459627295028083 0 0 0
12055 1 2 0 86.83144628190034 22.5464733664873 -2.235305444599296 0 0 0
8395 1 1 0 91.64186308777226 17.334044580431836 -1.643923164288837 0 0 0
12010 1 2 0 93.21149879877146 17.523757335402614 -2.156451591908634 0 0 0
8396 1 1 0 94.78689931999311 17.71403286356385 -1.640702931716411 0 0 0