LAMMPS data file via write_data, version 2 Aug 2023, timestep = 1318, units = metal

15384 atoms
2 atom types

7.002071160697318 196.61801493665894 xlo xhi
5.142807446151022 171.00620190873852 ylo yhi
-100 100 zlo zhi

Masses

1 28.085
2 15.999

Atoms # full

6793 1 1 0 7.730719417825279 6.45861728630522 -1.6432373144141046 0 0 0
9575 1 2 0 8.96080820523525 7.471940233432903 -2.1765390897894488 0 0 0
9574 1 2 0 11.531098203427135 7.053568115080442 -2.242700306478414 0 0 0
6788 1 1 0 10.42673915855569 8.119043788426504 -1.6451976384616596 0 0 0
9573 1 2 0 10.945726295187455 9.638574661168667 -2.16261553978203 0 0 0
6790 1 1 0 12.792523624562115 6.189305936547279 -1.649554035166148 0 0 0
9578 1 2 0 14.185822941108336 6.880910305340561 -2.221798941280251 0 0 0
6802 1 1 0 17.99408094206595 6.2462673869937255 -1.6447920467734312 0 0 0
9581 1 2 0 16.847943490100732 7.291283697025928 -2.196556526037347 0 0 0
6791 1 1 0 15.399176155623877 7.839256682961245 -1.6420076920626925 0 0 0
9580 1 2 0 15.309157701997261 9.377355018704055 -2.214131833332091 0 0 0
9599 1 2 0 19.466967885828257 6.74231889083996 -2.2108578401496795 0 0 0
9602 1 2 0 22.144759608484154 7.0210180214690805 -2.21355900866846 0 0 0
6809 1 1 0 23.405600080919527 6.115536569538364 -1.6479646039932505 0 0 0
6803 1 1 0 20.725296896665128 7.67128283680576 -1.6466327450877265 0 0 0
9601 1 2 0 20.603221619529194 9.222779858221228 -2.2151839265456794 0 0 0
13213 1 2 0 20.730240704467953 7.6692639912214 -6.567521650376736e-07 0 0 0
13219 1 2 0 23.397906133493816 6.150603852308353 -1.0083137252340221e-07 0 0 0
9610 1 2 0 24.854622591697083 6.683098689838658 -2.206806589419541 0 0 0
6812 1 1 0 26.403758821479578 6.718610290422386 -1.6454612902825863 0 0 0
9617 1 2 0 27.328157801041232 5.4872208928563175 -2.2512835923555787 0 0 0
9613 1 2 0 27.091365445847384 8.073319072636256 -2.2456611434967755 0 0 0
6810 1 1 0 27.728253765587212 9.453883270357043 -1.6462834202668852 0 0 0
9614 1 2 0 29.281352429003295 9.485495325673655 -2.2173358023582064 0 0 0
9612 1 2 0 26.731285557911054 10.626494165108738 -2.2382413839393265 0 0 0
13222 1 2 0 26.403881843771217 6.699557340440982 -1.4465976033109978e-08 0 0 0
13220 1 2 0 27.752891949393614 9.513670332024843 -1.1656203308760843e-07 0 0 0
6828 1 1 0 33.994252473194564 5.826695020417206 -1.6438385315474746 0 0 0
9641 1 2 0 33.742049345412596 7.325164515275771 -2.2407995671104994 0 0 0
9632 1 2 0 32.044122000696206 9.354487572518211 -2.242845760794163 0 0 0
6827 1 1 0 33.494758279813915 8.82746811904566 -1.6443902629379288 0 0 0
9642 1 2 0 34.7867246925594 9.664947376403028 -2.220615769526425 0 0 0
6821 1 1 0 30.70074344039691 10.10537079881236 -1.6396770364802469 0 0 0
13231 1 2 0 30.726098637888402 10.003559447293279 -6.235445860646958e-07 0 0 0
13237 1 2 0 33.465364125211416 8.874735182802274 -2.1337865646093298e-07 0 0 0
9644 1 2 0 35.4018242262693 5.237810585399106 -2.244495512533809 0 0 0
6834 1 1 0 39.30223919328551 5.984952340878603 -1.6436853115310615 0 0 0
9647 1 2 0 37.55330281794336 9.596883467615218 -2.2267132424162117 0 0 0
6833 1 1 0 38.98391702729794 9.01618419097351 -1.6446900292722775 0 0 0
9651 1 2 0 39.14234244086623 7.499481474350273 -2.2438103997371814 0 0 0
9652 1 2 0 40.27787695238574 9.858185554441043 -2.221714527994669 0 0 0
6830 1 1 0 36.18430135579641 10.309645771637832 -1.6435630428948222 0 0 0
13243 1 2 0 38.97859998382061 9.040225773145815 -5.176253995926776e-07 0 0 0
13240 1 2 0 36.20904153727752 10.273912805811346 -1.6374814887658996e-08 0 0 0
9654 1 2 0 40.70337524076305 5.373343391700667 -2.2385325899148114 0 0 0
6843 1 1 0 44.644793570916335 6.096279988316763 -1.6438901419279948 0 0 0
9668 1 2 0 43.36235617715778 5.258505821139782 -2.2352836740134547 0 0 0
9669 1 2 0 46.01800724490075 5.422666251061022 -2.2355973618101377 0 0 0
6842 1 1 0 44.43559661096366 9.142691392667832 -1.6444405197175709 0 0 0
9666 1 2 0 44.57464181528905 7.621050611065629 -2.2388885073053233 0 0 0
9657 1 2 0 43.01010753503687 9.725164142985568 -2.228903974366263 0 0 0
6836 1 1 0 41.68047872781407 10.500130235889191 -1.643907400751882 0 0 0
9667 1 2 0 45.71582700116965 10.001688541450305 -2.223356121374711 0 0 0
13246 1 2 0 41.6839316488243 10.472259609111319 -7.685753521758874e-08 0 0 0
9681 1 2 0 48.68143152634515 5.489628098281033 -2.2340494809360862 0 0 0
6851 1 1 0 50.01318507024708 6.250971077957886 -1.6443592722494123 0 0 0
9682 1 2 0 51.339059415341225 5.464727137377521 -2.224042104575831 0 0 0
6850 1 1 0 49.82243157250737 9.320888469193006 -1.6446108645717123 0 0 0
9679 1 2 0 49.988582869378945 7.789803399400655 -2.226648907839462 0 0 0
9675 1 2 0 48.41557606213874 9.961076121527718 -2.222175589298902 0 0 0
9680 1 2 0 51.08866600630052 10.19870001399548 -2.2242492617163068 0 0 0
13261 1 2 0 50.01580757496158 6.254235625393032 -2.2769738849766898e-07 0 0 0
9694 1 2 0 53.98698310950424 5.602646249698161 -2.2264127592711147 0 0 0
9688 1 2 0 53.762298328005905 10.12853378668179 -2.2206837418869942 0 0 0
6859 1 1 0 55.32433616828842 6.365096127894395 -1.644490970395553 0 0 0
9695 1 2 0 56.632851940829056 5.540075048098324 -2.217624755833802 0 0 0
6858 1 1 0 55.15463654016615 9.454440624944768 -1.6445689280728906 0 0 0
9692 1 2 0 55.30908210842574 7.913667820348223 -2.219035674210675 0 0 0
9693 1 2 0 56.41035253113523 10.349286852907927 -2.2214389858133665 0 0 0
13269 1 2 0 55.331540807003876 6.37929191536156 -1.2598632424737958e-07 0 0 0
13268 1 2 0 55.14912738260962 9.449037623595252 -5.595006476014582e-07 0 0 0
6866 1 1 0 60.59075395411089 6.525566779183112 -1.6445110798631373 0 0 0
9704 1 2 0 59.25712189947101 5.746048359163783 -2.2187124487980796 0 0 0
9706 1 2 0 61.879521316704256 5.661287442342332 -2.2102522621447545 0 0 0
6864 1 1 0 60.436942789511626 9.638533893257549 -1.644585795679823 0 0 0
9702 1 2 0 60.58123966439023 8.085638297609902 -2.210856008991801 0 0 0
9698 1 2 0 59.056801393556306 10.34471490646124 -2.2169196374327895 0 0 0
9703 1 2 0 61.67702083340012 10.564369448568321 -2.2136367771418537 0 0 0
13274 1 2 0 60.431621900624535 9.617240581040715 -1.067432952407757e-08 0 0 0
11770 1 2 0 64.46888579990141 5.933185547239458 -2.2080558007300253 0 0 0
8229 1 1 0 65.78860547405822 6.753807714503069 -1.6446428348600024 0 0 0
11771 1 2 0 67.0571296086311 5.857945632712256 -2.20694312801965 0 0 0
11768 1 2 0 65.81797331976436 8.32676720217378 -2.201183362319514 0 0 0
8228 1 1 0 65.68900572714647 9.895622730954093 -1.6447322165436065 0 0 0
9733 1 2 0 64.29651611784335 10.575516122881366 -2.215749057965636 0 0 0
14639 1 2 0 65.79238948070036 6.792217564482776 -2.634206760002586e-07 0 0 0
11783 1 2 0 69.61598821539395 6.165523284287709 -2.200431458321626 0 0 0
8237 1 1 0 70.87210076664988 7.093370636798837 -1.6441917655566158 0 0 0
11784 1 2 0 72.18084258315324 6.2800637669153065 -2.2184273126778953 0 0 0
8244 1 1 0 73.51817543066392 5.515178561523095 -1.6441733968378858 0 0 0
11781 1 2 0 70.90323520766913 8.66868957008798 -2.199414880252685 0 0 0
8236 1 1 0 70.8442439411011 10.245743671346986 -1.6442247966247312 0 0 0
14647 1 2 0 70.84430540564573 7.136084274113782 -6.6181826664882445e-09 0 0 0
14654 1 2 0 73.55216073830488 5.469368740615902 -9.327860240105317e-08 0 0 0
11793 1 2 0 74.74015652210372 6.478230862460433 -2.2083239615420176 0 0 0
8243 1 1 0 75.9927999476513 7.399809762168919 -1.6442321599085787 0 0 0
11794 1 2 0 77.30086326780447 6.577218699474986 -2.213790426664145 0 0 0
8250 1 1 0 78.64482641638455 5.820579236569235 -1.6434995905998748 0 0 0
11791 1 2 0 76.01232944226201 8.974143116452106 -2.2037405711076588 0 0 0
8242 1 1 0 75.93235986465223 10.546651880100988 -1.6436088682424599 0 0 0
14653 1 2 0 75.96403957294416 7.449735678924271 -1.6218207059521204e-07 0 0 0
14660 1 2 0 78.65795860178333 5.7799309828135685 -1.5391444914376166e-07 0 0 0
14652 1 2 0 75.99195913750724 10.49171358560579 -2.1663027086102374e-07 0 0 0
11803 1 2 0 79.86492654884708 6.771741004506457 -2.2158280893196407 0 0 0
11804 1 2 0 82.44327938681785 6.8872179303722465 -2.2408041640539906 0 0 0
8273 1 1 0 83.64427017755904 5.938058836408655 -1.6402935954295241 0 0 0
11821 1 2 0 85.05643076140957 6.513079816810166 -2.2228587224531626 0 0 0
8249 1 1 0 81.11912502381459 7.673693737324936 -1.6458685730220357 0 0 0
11801 1 2 0 81.08594071561681 9.237238076528687 -2.2145690176958084 0 0 0
14683 1 2 0 83.57018926025029 5.971854752361682 -7.913134073734823e-08 0 0 0
11816 1 2 0 87.58703431233262 7.010753282813649 -2.186478990828348 0 0 0
8256 1 1 0 88.42859745976197 5.682726731077508 -1.641606994475049 0 0 0
11812 1 2 0 89.9739922852166 5.854796824301556 -2.1740688707067317 0 0 0
8258 1 1 0 86.13554943949282 7.5901290261448064 -1.6409863287479334 0 0 0
11818 1 2 0 85.61790699728792 9.038313970178562 -2.2346419163828335 0 0 0
8257 1 1 0 85.728322144548 10.572918575292935 -1.6424706991389528 0 0 0
14666 1 2 0 88.36408992804033 5.640929442096003 -8.281632816231256e-07 0 0 0
14665 1 2 0 90.24155726040838 9.659933082200997 -1.284039359879428e-07 0 0 0
8255 1 1 0 90.6783446835873 9.8588921430249 -1.5780093437015648 0 0 0
8254 1 1 0 91.17857479216396 6.848405633975218 -1.6446312160864924 0 0 0
11813 1 2 0 92.56590053359886 6.149365604715556 -2.21915893256821 0 0 0
8260 1 1 0 93.96709469319417 5.466909352919182 -1.6447706115239429 0 0 0
11823 1 2 0 95.21288914131827 6.362030650112522 -2.236565360295393 0 0 0
11811 1 2 0 90.81402224465086 8.356108948524653 -2.2580530474366003 0 0 0
8261 1 1 0 95.89854231076792 7.717926220639095 -1.6420465245946672 0 0 0
11825 1 2 0 94.93252941896912 8.965286536480482 -2.1544525879380076 0 0 0
8262 1 1 0 95.28003849999924 10.494286151637056 -1.646365330606585 0 0 0
11815 1 2 0 92.1754760219988 10.488304598724664 -1.7898011492595158 0 0 0
14671 1 2 0 95.97710802159379 7.664531518898538 -2.947326100364215e-07 0 0 0
14672 1 2 0 95.19595298527078 10.544136355682912 -8.660845610980789e-08 0 0 0
6425 1 1 0 100.81895383119853 5.5281883463604 -1.6382184002764826 0 0 0
8999 1 2 0 99.6707986661088 6.501528378904824 -2.2647784365361727 0 0 0
6423 1 1 0 98.94206810242628 7.829980252837301 -1.6489743132345824 0 0 0
9000 1 2 0 97.41815851207767 7.828593431179334 -2.257368606642615 0 0 0
8998 1 2 0 99.82160444718006 9.077589432058248 -2.265438899092337 0 0 0
6424 1 1 0 100.35098116484453 10.48955837296229 -1.6301443454120546 0 0 0
12835 1 2 0 100.76675474358733 5.5309791165830955 -5.726518196741576e-07 0 0 0
6789 1 1 0 11.804997939811345 10.996600332846135 -1.6453654893021576 0 0 0
9585 1 2 0 8.51566826772336 13.354428582551161 -2.198797365072184 0 0 0
6794 1 1 0 10.07695346664476 13.625765222186521 -1.646932511304147 0 0 0
9577 1 2 0 11.010564139163963 12.35747762177054 -2.1857243955052224 0 0 0
9586 1 2 0 10.715589774623172 15.088716752861853 -2.1819594791421566 0 0 0
13205 1 2 0 7.048407278893993 13.012075698820448 -1.5994981689325778e-07 0 0 0
9576 1 2 0 13.39474717665621 11.164762741556618 -2.1698442357096885 0 0 0
6792 1 1 0 14.96871869481267 10.888661574174492 -1.6448003839264222 0 0 0
9582 1 2 0 16.21730423051779 11.894905940652917 -2.182993538668407 0 0 0
6805 1 1 0 17.742285433148545 12.370305636299852 -1.6418900921142408 0 0 0
13215 1 2 0 17.665153342693895 12.437377656669597 -7.294131514953155e-08 0 0 0
9603 1 2 0 18.905344748611537 11.286338691722746 -2.139576024739629 0 0 0
6804 1 1 0 20.399655681858896 10.765562832768309 -1.6424540201282731 0 0 0
9604 1 2 0 21.612169186712176 11.748282173992969 -2.2249901096051086 0 0 0
9605 1 2 0 18.273930284764624 13.857216128206698 -2.1963117317396823 0 0 0
9618 1 2 0 22.904303527792113 14.193253479578487 -2.1452060954181817 0 0 0
6813 1 1 0 22.91004081257278 12.610500595259353 -1.644869622080207 0 0 0
6867 1 1 0 19.06951053297552 15.21858446805663 -1.6458137628435672 0 0 0
9708 1 2 0 20.618140981995833 15.472287076309025 -2.2021916668951675 0 0 0
6873 1 1 0 22.180374704038723 15.601345611386149 -1.6405395641605107 0 0 0
13214 1 2 0 20.47262342753575 10.759868427142273 -1.3569929524251344e-07 0 0 0
13223 1 2 0 22.876420160148136 12.562067258171787 -1.5708682942833644e-08 0 0 0
6811 1 1 0 25.859867865869656 11.890351365275889 -1.6405649369660618 0 0 0
9615 1 2 0 24.310735698229564 11.92776452519657 -2.220983113044782 0 0 0
9616 1 2 0 26.647390953291342 13.22057349674205 -2.183603325689969 0 0 0
6823 1 1 0 27.795949855055017 14.252508095599955 -1.6417513178538943 0 0 0
9633 1 2 0 29.293681321006087 13.89957632824254 -2.243034783406044 0 0 0
9635 1 2 0 27.273541342464064 15.6793790419127 -2.2432065826230803 0 0 0
13221 1 2 0 25.81441203496986 11.81312258885583 -3.783818951246272e-07 0 0 0
13233 1 2 0 27.870928514232613 14.271281245890611 -3.2609596772868537e-07 0 0 0
9631 1 2 0 30.730170811376922 11.645795175363416 -2.1888620376160137 0 0 0
6822 1 1 0 30.651679412200238 13.182154102797726 -1.642021065308761 0 0 0
9634 1 2 0 32.0003919948894 13.88480477559425 -2.2539182862423366 0 0 0
9648 1 2 0 34.705670761725 14.043592208288356 -2.2355206060748025 0 0 0
6832 1 1 0 33.30577280035829 14.672566854075152 -1.6442835941312244 0 0 0
9650 1 2 0 33.18243515805982 16.1910196212225 -2.2338451185628343 0 0 0
13242 1 2 0 33.31240310213563 14.634931779283054 -8.422689974672124e-10 0 0 0
9646 1 2 0 36.14715832522574 11.823121015578227 -2.2504808207170535 0 0 0
6831 1 1 0 36.067118497895024 13.334492986275745 -1.643893404433084 0 0 0
9649 1 2 0 37.42055470883839 14.031255835548631 -2.2450727908107817 0 0 0
9658 1 2 0 40.13676176613075 14.091405198551087 -2.2399452360069034 0 0 0
6838 1 1 0 38.75876026245229 14.756095979081081 -1.642618404127836 0 0 0
13248 1 2 0 38.77576279001644 14.714795978163838 -3.190584050609601e-07 0 0 0
9656 1 2 0 41.76653411150015 12.02398147815424 -2.2356613055918975 0 0 0
6837 1 1 0 41.56601329070891 13.536519258907342 -1.644201998983416 0 0 0
9659 1 2 0 42.82372790244252 14.414371159045201 -2.2323727395308732 0 0 0
9676 1 2 0 45.52294728600481 14.445036242302628 -2.2252426057967263 0 0 0
6849 1 1 0 44.16161588383232 15.169379635227894 -1.6442345438524237 0 0 0
6847 1 1 0 47.07555277094655 10.73079779605385 -1.644547817839473 0 0 0
6848 1 1 0 46.92426709002906 13.79866121408208 -1.6446047604985217 0 0 0
9674 1 2 0 47.07126447182179 12.268235955846732 -2.2282488501799036 0 0 0
9677 1 2 0 48.19841601325958 14.662826506923953 -2.2273707578190685 0 0 0
6857 1 1 0 49.540464356485195 15.418305546963742 -1.644303907910676 0 0 0
9689 1 2 0 50.87897690384898 14.651943733345965 -2.2246042267222954 0 0 0
13258 1 2 0 46.920787300571334 13.80204811199895 -7.612283750246496e-08 0 0 0
13267 1 2 0 49.54063431744279 15.410349750046807 -2.1552527100969683e-07 0 0 0
6855 1 1 0 52.443333685486394 10.9344689160844 -1.644512209904344 0 0 0
6856 1 1 0 52.28389892860842 14.013058185406637 -1.6445474632629111 0 0 0
9687 1 2 0 52.44882534003843 12.478218077904055 -2.221916447088508 0 0 0
9690 1 2 0 53.538007457545284 14.90906865449878 -2.223965229551952 0 0 0
6863 1 1 0 54.84637902270476 15.726262545668705 -1.6446321213396518 0 0 0
9699 1 2 0 56.199803746722246 14.973377969590254 -2.2182375345833996 0 0 0
13266 1 2 0 52.27922856451074 14.015640042322884 -5.093952152861351e-07 0 0 0
6861 1 1 0 57.731881667863085 11.14598406702152 -1.6445635603045579 0 0 0
6862 1 1 0 57.56769643177818 14.245596303928615 -1.644625800428266 0 0 0
9697 1 2 0 57.680532355688285 12.697464750719043 -2.2155474572549934 0 0 0
9700 1 2 0 58.85349316041217 15.099829399755281 -2.220120287938936 0 0 0
6882 1 1 0 60.13407931992863 15.9627296067919 -1.6445248428479156 0 0 0
9730 1 2 0 61.50529286225662 15.243168591539783 -2.2182206269083964 0 0 0
13271 1 2 0 57.746239313277314 11.162259340160382 -1.378969940007161e-07 0 0 0
13272 1 2 0 57.557712577469985 14.239134666933472 -2.751755740642041e-07 0 0 0
13292 1 2 0 60.14635589451073 15.974165512822141 -1.2117998017619823e-08 0 0 0
6883 1 1 0 62.984117276370945 11.394224531565213 -1.6444188936583888 0 0 0
11769 1 2 0 66.87695145189284 10.905716930135425 -2.2012774974219322 0 0 0
8233 1 1 0 68.17364859755646 11.774036235872616 -1.6441959248406004 0 0 0
9732 1 2 0 62.95582242559795 12.952786992333813 -2.211569632685331 0 0 0
6884 1 1 0 62.87062942801608 14.509492381938177 -1.644705796342588 0 0 0
11776 1 2 0 68.23959194451125 13.343449010971757 -2.2001306150429327 0 0 0
9734 1 2 0 64.15217049845964 15.385394109856113 -2.2098673392521793 0 0 0
11778 1 2 0 66.79772338984938 15.594968443457844 -2.2187910427358526 0 0 0
8234 1 1 0 68.18950943975148 14.916418997956493 -1.6450320858614544 0 0 0
14643 1 2 0 68.15984717964696 11.811643239793591 -1.9401505260016604e-08 0 0 0
14644 1 2 0 68.21415593168538 14.889250755156706 -1.1671735706660356e-07 0 0 0
11777 1 2 0 69.45908840704895 10.924210781334653 -2.2183316409512517 0 0 0
11782 1 2 0 72.00616980546612 11.293166354766688 -2.1966402486637375 0 0 0
8239 1 1 0 73.31401973399737 12.154691092790971 -1.6436244728345437 0 0 0
11786 1 2 0 73.46495668666671 13.727617304753272 -2.1938325531024425 0 0 0
11779 1 2 0 69.42071095041662 15.890937895931641 -2.193459514278388 0 0 0
11788 1 2 0 72.04183046574413 15.97164909030054 -2.216972423770814 0 0 0
8240 1 1 0 73.44002482384982 15.312632274247912 -1.6448013005252982 0 0 0
14650 1 2 0 73.48371365211689 15.273387089325137 -3.1584743989692386e-07 0 0 0
11787 1 2 0 74.55001454090164 11.22964660444095 -2.2097635287593893 0 0 0
11792 1 2 0 77.07000029385898 11.61086584223064 -2.2061632839912186 0 0 0
8245 1 1 0 78.38018839090228 12.450386821337773 -1.643377534278882 0 0 0
11796 1 2 0 78.52781225919964 14.01823941631077 -2.202497432057435 0 0 0
8246 1 1 0 78.55795277561582 15.597069561719074 -1.6449082314106305 0 0 0
14656 1 2 0 78.5764400196242 15.551777322423115 -2.7757606356626475e-07 0 0 0
11797 1 2 0 79.59396091895692 11.494809210057422 -2.208093876423504 0 0 0
8248 1 1 0 80.96503936252859 10.795177005644627 -1.6429347237650003 0 0 0
11802 1 2 0 82.1092546394911 11.835305411738831 -2.216485760482722 0 0 0
11820 1 2 0 84.64564444856205 11.650450682138427 -2.238086759256664 0 0 0
8270 1 1 0 83.44455349022296 12.612732871270193 -1.6448476085111652 0 0 0
11837 1 2 0 83.58463236374335 14.171715775833297 -2.210008367215537 0 0 0
8271 1 1 0 83.6698552904247 15.743115086314784 -1.6442660609917477 0 0 0
14681 1 2 0 83.65007677919597 15.682613273286256 -2.804353967361458e-07 0 0 0
11819 1 2 0 87.15767386125547 11.05311231967975 -2.2492048111273117 0 0 0
8259 1 1 0 88.409124225534 11.894208914458334 -1.6444168977653897 0 0 0
11814 1 2 0 89.67988277571118 11.008083351790717 -2.244774185945555 0 0 0
11822 1 2 0 88.13378721338383 13.435107698998195 -2.1867073705763818 0 0 0
8277 1 1 0 88.4906389511904 14.962906751777652 -1.6404633426950896 0 0 0
11848 1 2 0 90.02364915919492 15.168202522735557 -2.2137647995141165 0 0 0
14687 1 2 0 88.37505727592584 14.998976922777455 -1.1398757439075553e-07 0 0 0
8263 1 1 0 92.8515858624636 11.966307962916243 -1.5849433783873073 0 0 0
11826 1 2 0 94.33996871615344 11.708246990025593 -2.2670603366935795 0 0 0
11828 1 2 0 91.9576353841819 13.163574876066237 -2.281076127228488 0 0 0
8280 1 1 0 91.45919327480803 14.608242294068205 -1.6427728931562937 0 0 0
11851 1 2 0 92.55205471186972 15.685846499431003 -2.215895773215609 0 0 0
11853 1 2 0 95.92119922700104 15.441323326580736 -2.1878965411154176 0 0 0
14673 1 2 0 93.03606180051486 12.364007686022036 -5.387855058942506e-07 0 0 0
14690 1 2 0 91.3564341664707 14.527465566973868 -2.4793350646385434e-07 0 0 0
11827 1 2 0 96.8206658853872 10.705120052505402 -2.196667481482377 0 0 0
9001 1 2 0 99.32855389312464 11.687136677146507 -2.0903257484486715 0 0 0
8269 1 1 0 97.78517994593108 11.898547742763279 -1.631354100290872 0 0 0
8994 1 2 0 101.75138597799724 10.97397777233092 -2.3152498309200724 0 0 0
11836 1 2 0 97.27281281186742 13.27042205586196 -2.341548206725219 0 0 0
8282 1 1 0 97.30585690025919 14.737125822191864 -1.6466337351217388 0 0 0
9130 1 2 0 98.54406126594759 15.585449532339943 -2.2698722960037356 0 0 0
9085 1 2 0 101.03850289920813 15.118326267128403 -2.253692863083134 0 0 0
6503 1 1 0 99.93010227468466 16.163988302092537 -1.6455403618214697 0 0 0
6868 1 1 0 11.31395202313427 16.56406992498983 -1.6480562971241917 0 0 0
9710 1 2 0 10.323851375488168 17.805479943715728 -2.187637571173947 0 0 0
6888 1 1 0 9.54409686059091 19.177671068594893 -1.6467368584507198 0 0 0
9740 1 2 0 7.997943444581448 19.313577518904452 -2.2108809766846593 0 0 0
9741 1 2 0 10.126529768444174 20.606338425458546 -2.248026950348124 0 0 0
6934 1 1 0 11.245947357478729 21.629121942219086 -1.6272431553734215 0 0 0
13278 1 2 0 11.326818712471553 16.530653279488845 -4.81496287476649e-08 0 0 0
9709 1 2 0 12.883899597473246 16.85538448410193 -2.196047988743875 0 0 0
9713 1 2 0 14.409911097019776 19.176865744307626 -2.26334922731687 0 0 0
6870 1 1 0 14.250108844588324 17.651782697945883 -1.6439102163638692 0 0 0
9711 1 2 0 15.743403104684655 17.08952880757954 -2.131081871815001 0 0 0
6869 1 1 0 17.235177148913735 17.673125865781934 -1.6455205026017103 0 0 0
9712 1 2 0 17.803432641439382 19.14700712575639 -2.228111561553862 0 0 0
9793 1 2 0 12.607464584215736 20.894611912505834 -2.091031101193803 0 0 0
6921 1 1 0 14.132584619257942 20.65972391547155 -1.6313493564406127 0 0 0
13280 1 2 0 14.137134387794596 17.62680490946774 -7.580725762164287e-08 0 0 0
13331 1 2 0 14.371305891965793 20.610194562129706 -3.783306239530455e-07 0 0 0
9707 1 2 0 18.26353150448893 16.53095425020798 -2.223532137949153 0 0 0
9717 1 2 0 23.051179763057288 16.928431513496022 -2.192152376395591 0 0 0
6920 1 1 0 18.482274966178732 20.518264528444618 -1.5641667981354646 0 0 0
9791 1 2 0 19.813771215640784 21.22584179608246 -2.266877958450749 0 0 0
6926 1 1 0 23.586064764485933 21.19348516335799 -1.6395959705039962 0 0 0
6878 1 1 0 24.132201819612472 18.0998446654914 -1.6484214621365971 0 0 0
9723 1 2 0 25.68002816331166 17.791491688680352 -2.1906086391386763 0 0 0
6877 1 1 0 27.1295036828879 17.199198869188557 -1.6434878193082676 0 0 0
9724 1 2 0 28.494710662356628 17.937771702813077 -2.2191407497616606 0 0 0
9725 1 2 0 23.76472203690308 19.635511971848505 -2.2101743966794833 0 0 0
6896 1 1 0 29.864513208571335 18.657381532407815 -1.6454762370500804 0 0 0
9752 1 2 0 31.316947532808314 18.079251524207915 -2.213396901309929 0 0 0
6895 1 1 0 32.821612407468585 17.676497042347776 -1.6441668127880382 0 0 0
9753 1 2 0 34.077248297159706 18.60249371319595 -2.2076978310064974 0 0 0
9754 1 2 0 29.697969534251232 20.174649929780923 -2.2493883887641775 0 0 0
6930 1 1 0 30.15710607106594 21.615170729679697 -1.6387144422614859 0 0 0
13305 1 2 0 32.78358892001136 17.710014432483973 -3.993306245375665e-07 0 0 0
13340 1 2 0 30.05547405956647 21.61623653717055 -9.267565742208926e-08 0 0 0
9660 1 2 0 38.66755442448021 16.26570912617935 -2.242726656590629 0 0 0
6901 1 1 0 35.57060543552668 19.044591330857866 -1.641791691459928 0 0 0
9760 1 2 0 36.86246992846362 18.186062999912004 -2.223355084562176 0 0 0
6900 1 1 0 38.34964697651035 17.748677435273486 -1.6437683500963827 0 0 0
9761 1 2 0 39.63092898735028 18.593599007734024 -2.2280875875878485 0 0 0
9762 1 2 0 35.8381522639715 20.564717322540922 -2.1968213862354524 0 0 0
13310 1 2 0 38.32614925323377 17.804840255430314 -3.4529573369306685e-07 0 0 0
9678 1 2 0 44.10703984435755 16.702261566435592 -2.2290251641101064 0 0 0
9768 1 2 0 42.39831277623171 18.757921104084254 -2.2169019132292243 0 0 0
6906 1 1 0 40.963692423191816 19.35586801056662 -1.64437349274123 0 0 0
6905 1 1 0 43.855235888119516 18.218085921140936 -1.6451784823256985 0 0 0
9769 1 2 0 45.11267545206081 19.12349585621727 -2.2196298976123394 0 0 0
9770 1 2 0 40.71272889803114 20.855731461415974 -2.2464624903129673 0 0 0
13316 1 2 0 41.008845876436624 19.319690618312823 -2.5805259842163777e-08 0 0 0
9691 1 2 0 49.53936535821067 16.95913337475456 -2.2215015397537967 0 0 0
6909 1 1 0 49.305359845018394 18.48314942363744 -1.64475104488042 0 0 0
9773 1 2 0 47.84879012554703 19.008697699904495 -2.220366550305369 0 0 0
6910 1 1 0 46.51159231212366 19.78681839946415 -1.643964423330907 0 0 0
9775 1 2 0 46.591970576465926 21.325003053047663 -2.2162772624880738 0 0 0
9774 1 2 0 50.53459821709216 19.423073082084525 -2.2198980295890607 0 0 0
6912 1 1 0 51.85807433920206 20.22718804339097 -1.6448028291939083 0 0 0
9776 1 2 0 53.229080796979105 19.49865623999123 -2.2156048464218725 0 0 0
6911 1 1 0 54.62557908035295 18.81985438666817 -1.6448941707167652 0 0 0
9701 1 2 0 54.76560201022248 17.274687257278185 -2.2146910339066648 0 0 0
9777 1 2 0 55.9067234589279 19.688237453412423 -2.2183294216652256 0 0 0
6916 1 1 0 57.20556853596878 20.53125570798809 -1.644841994926516 0 0 0
9731 1 2 0 60.007577171948206 17.508449967233506 -2.214807370108339 0 0 0
6917 1 1 0 59.94321985869252 19.05901724000322 -1.6447067594760647 0 0 0
9784 1 2 0 58.58570007014295 19.816261371257056 -2.2128110819090145 0 0 0
9786 1 2 0 61.27620347669404 19.84256908112462 -2.219151264969822 0 0 0
6974 1 1 0 62.51539289790424 20.769057010738432 -1.644504461979619 0 0 0
13327 1 2 0 59.93073554912117 19.06459707234301 -3.530316195885967e-07 0 0 0
8235 1 1 0 65.41600897534416 16.286751460648606 -1.6444136482115144 0 0 0
11780 1 2 0 65.30615657873754 17.836477558737965 -2.2137954667296906 0 0 0
8285 1 1 0 65.30227508967718 19.391417858727184 -1.6450043035991884 0 0 0
9874 1 2 0 63.95053516145525 20.16582091442017 -2.211455269551348 0 0 0
11857 1 2 0 66.65778754028301 20.159073067361486 -2.207269815725379 0 0 0
8289 1 1 0 67.90244584315829 21.09459505722515 -1.6442974346056167 0 0 0
14645 1 2 0 65.4200471989909 16.30191389643443 -2.6560362752063465e-07 0 0 0
8241 1 1 0 70.72204777636856 16.773243233824168 -1.6445148014761808 0 0 0
11790 1 2 0 70.81584119605769 18.34462503877362 -2.193615027840048 0 0 0
11861 1 2 0 69.35749331730567 20.548282491355057 -2.2075336685964966 0 0 0
8288 1 1 0 70.78468863449454 19.921607697747852 -1.6451879282677173 0 0 0
11862 1 2 0 72.03945455099353 20.891409591314297 -2.184448334749932 0 0 0
14651 1 2 0 70.69078828646136 16.802793288940073 -1.0831188748199322e-07 0 0 0
14698 1 2 0 70.82742199544067 19.912184072383425 -1.4831423867930267e-08 0 0 0
11789 1 2 0 74.63522974115993 16.345773733371864 -2.1815314344013212 0 0 0
11798 1 2 0 77.2230447861436 16.36711888727164 -2.2233846862089646 0 0 0
8247 1 1 0 75.945767575893 17.233444640535385 -1.6446542185886803 0 0 0
11800 1 2 0 76.11822784604355 18.8141654387242 -2.1774756368388037 0 0 0
11865 1 2 0 74.71732169934295 21.046240739779357 -2.208206764129339 0 0 0
8291 1 1 0 76.13557518239415 20.409936148130576 -1.6447217091337585 0 0 0
11866 1 2 0 77.3693854504745 21.42553302691788 -2.166738409181027 0 0 0
14657 1 2 0 75.91037818225495 17.27284601550855 -1.2862729756572965e-07 0 0 0
14701 1 2 0 76.18632196426098 20.38694870672953 -6.289610223340024e-08 0 0 0
11799 1 2 0 79.81515028010026 16.53899573932233 -2.1856085995208954 0 0 0
11838 1 2 0 82.40604555576674 16.63590033187606 -2.218519983491014 0 0 0
11839 1 2 0 85.00640782069297 16.557401318408132 -2.183908906117168 0 0 0
8272 1 1 0 81.09124416498624 17.458098168998873 -1.6447614804609003 0 0 0
11840 1 2 0 81.12207179905519 19.043389485459365 -2.187881889141697 0 0 0
11868 1 2 0 80.01683252181216 21.56706422313652 -2.1940551676971256 0 0 0
8293 1 1 0 81.27567614512563 20.626692916534 -1.6452232255296841 0 0 0
11869 1 2 0 82.67546120151424 21.361273366759033 -2.175770542145706 0 0 0
14682 1 2 0 81.0822082514672 17.495921372476605 -2.9739704063276946e-07 0 0 0
11847 1 2 0 87.58863734187436 16.225197736076723 -2.222645615940676 0 0 0
8278 1 1 0 86.41039577489516 17.26360483438962 -1.6459556287449992 0 0 0
11849 1 2 0 86.59613665075399 18.846803895651526 -2.1767952772961183 0 0 0
11877 1 2 0 85.35132783950459 21.32201744741432 -2.1814013162543695 0 0 0
8299 1 1 0 86.67135194793414 20.451719781751063 -1.647934995353669 0 0 0
11878 1 2 0 88.0100984709197 21.309545569523202 -2.1944584020411733 0 0 0
8304 1 1 0 89.55044061286492 21.646911253975176 -1.6318460388002862 0 0 0
11883 1 2 0 90.38674659221606 20.340181159175977 -2.1746871299550485 0 0 0
14688 1 2 0 86.42266949739829 17.2933559522215 -4.3974684891576676e-08 0 0 0
8284 1 1 0 95.6898084345311 16.956946681618497 -1.6156112872014015 0 0 0
11855 1 2 0 91.85031477119576 18.31174363789073 -2.230117528659573 0 0 0
11854 1 2 0 94.33349904931794 17.59256590184505 -2.2685343714231943 0 0 0
8283 1 1 0 92.86709751803748 17.17932752702993 -1.642179471007493 0 0 0
8303 1 1 0 91.84701419683323 19.846358447208438 -1.6432082035703064 0 0 0
8309 1 1 0 94.62044090494386 20.990492008414748 -1.61797156287888 0 0 0
11884 1 2 0 93.12206588817962 20.71585173605102 -2.255965563147754 0 0 0
11890 1 2 0 95.80150569799572 20.107615279921745 -2.350654671916877 0 0 0
14694 1 2 0 95.46962944316427 16.889696925364266 -7.779213712720793e-08 0 0 0
14693 1 2 0 92.77279615415094 17.184275301155708 -2.2501944639867084e-07 0 0 0
14713 1 2 0 91.88510323401579 19.932068091787677 -8.613113353714977e-08 0 0 0
11856 1 2 0 97.0188992194065 17.850614951489245 -1.9625061608615975 0 0 0
9129 1 2 0 100.09995909759282 17.667493499044156 -2.2542482818568437 0 0 0
6504 1 1 0 99.9481660306572 19.17874008982965 -1.6465697822533363 0 0 0
8308 1 1 0 97.11582029674727 19.46077869160327 -1.61474616933314 0 0 0
9131 1 2 0 98.57723991377745 19.933934491024797 -2.2090363145211827 0 0 0
9127 1 2 0 101.28757818322171 19.894044207199123 -2.2264043173287305 0 0 0
9812 1 2 0 11.335833058188992 23.115678987641964 -2.325155473676519 0 0 0
9876 1 2 0 7.454992631099428 25.992613149112152 -2.310417894611844 0 0 0
6976 1 1 0 8.882803007508517 26.340837561138933 -1.5761590689074878 0 0 0
6966 1 1 0 11.277020691074325 24.583670026598575 -1.583160348292759 0 0 0
9862 1 2 0 9.697512335826422 24.943848348237864 -1.7743306307842976 0 0 0
9861 1 2 0 12.197160162897383 25.770922404914433 -2.2632834281218592 0 0 0
9792 1 2 0 14.972014906397538 21.898536891984765 -2.323650862078079 0 0 0
6922 1 1 0 16.1779685021153 22.729586013174966 -1.5662412892474022 0 0 0
9790 1 2 0 17.473157334395154 21.784072906861752 -1.7000864918286627 0 0 0