LAMMPS data file via write_data, version 2 Aug 2023, timestep = 1284, units = metal

15360 atoms
2 atom types

6.247831890869703 196.86729479162344 xlo xhi
5.7410285482774075 170.53251478083985 ylo yhi
-100 100 zlo zhi

Masses

1 28.085
2 15.999

Atoms # full

9544 1 2 0 8.336915230546193 7.535121359081536 -2.1200935043797013 0 0 0
6770 1 1 0 9.609946174097457 6.6546550458836595 -1.6340651565623971 0 0 0
9541 1 2 0 10.930797101286323 7.351859217348325 -2.298197304640006 0 0 0
6772 1 1 0 7.713777648783092 8.956301851545687 -1.6385420341558876 0 0 0
9546 1 2 0 8.660824269131984 10.173301370439988 -2.239851175414662 0 0 0
13172 1 2 0 7.643554842285336 9.112049170577269 -5.196404195050438e-08 0 0 0
13171 1 2 0 9.199146766558124 11.537033160648177 -9.842945682132731e-08 0 0 0
9543 1 2 0 13.484730887561513 7.572778962494111 -2.2271416761630713 0 0 0
6775 1 1 0 14.423944177549211 6.3646870949127505 -1.6382240883952994 0 0 0
9554 1 2 0 15.920240970056646 6.739665816123475 -2.1753607271495774 0 0 0
6785 1 1 0 17.077307001646503 7.770475078203472 -1.6404925928502794 0 0 0
6769 1 1 0 12.11763601867514 8.271983403536298 -1.6452508034016438 0 0 0
9542 1 2 0 11.963386759819935 9.844345630147462 -2.153986198892591 0 0 0
9568 1 2 0 16.913095199714004 9.305023466826773 -2.230511725410459 0 0 0
6773 1 1 0 13.086534042487587 10.962403573098362 -1.6388088685132542 0 0 0
9551 1 2 0 14.4787725844986 10.322096701806398 -2.2129724574621967 0 0 0
6784 1 1 0 15.999879011926675 10.541877621396468 -1.6436780625082017 0 0 0
13169 1 2 0 12.082152727379267 8.236732470129217 -4.5572705082215475e-07 0 0 0
6792 1 1 0 19.68008235592917 6.250700971389383 -1.648793671095513 0 0 0
9570 1 2 0 18.42955315603247 7.1149586670911305 -2.2648416026366136 0 0 0
9580 1 2 0 20.936200016936322 7.135805202610915 -2.2394246719908235 0 0 0
6791 1 1 0 22.137937303631904 8.083725883939792 -1.6343627119790376 0 0 0
9578 1 2 0 22.22142738337199 9.63574018086171 -2.2238982679150583 0 0 0
6790 1 1 0 22.511716237763007 11.169935180617268 -1.6472318583899699 0 0 0
13191 1 2 0 22.015743437883277 8.183735682947667 -1.1569866013696437e-07 0 0 0
9581 1 2 0 23.432095935363073 7.2240961496497045 -2.1355270605132546 0 0 0
6800 1 1 0 24.909366087331925 6.75158121390515 -1.633148009869187 0 0 0
9593 1 2 0 25.890686858355384 7.9482820876587255 -2.2196872645131944 0 0 0
6799 1 1 0 26.76230501744617 9.240685876577187 -1.6453591640866176 0 0 0
9594 1 2 0 28.25763470717676 8.894412147271517 -2.2271319560063763 0 0 0
9587 1 2 0 26.349779424929988 10.770992580522863 -2.178915757540555 0 0 0
13199 1 2 0 26.690870857001553 9.247790950076201 -4.0178031288584723e-07 0 0 0
9599 1 2 0 30.08356773818745 6.923542256967122 -2.20629246944959 0 0 0
6806 1 1 0 33.8039715191448 6.137781840034028 -1.6409357117428003 0 0 0
9603 1 2 0 33.942008874579756 7.656048024451489 -2.2521940139814274 0 0 0
6802 1 1 0 29.725997844065983 8.453776570241404 -1.645229881621558 0 0 0
9596 1 2 0 30.69411536025099 9.671908634948458 -2.2138766642627687 0 0 0
9598 1 2 0 33.2092475740318 10.313076881881667 -2.1653245767557854 0 0 0
6805 1 1 0 34.24949301315648 9.151632951183121 -1.6423918810430225 0 0 0
6801 1 1 0 31.73035030078607 10.826507914197347 -1.6393485239262364 0 0 0
13202 1 2 0 29.767909234887945 8.415297820976575 -1.4689691373434715e-07 0 0 0
13201 1 2 0 31.62910349548574 10.872967174066371 -2.0247726111144758e-07 0 0 0
9616 1 2 0 38.971351657216005 6.501391429050016 -2.229492418004647 0 0 0
6813 1 1 0 39.35759753943946 7.990437530242076 -1.6438489409560177 0 0 0
9604 1 2 0 35.701030148282605 9.562635218763587 -2.26456550291886 0 0 0
6808 1 1 0 37.1221342122583 10.0749443287629 -1.6430438753089998 0 0 0
9609 1 2 0 38.28059372262352 9.078274764376104 -2.234799801381893 0 0 0
13213 1 2 0 39.35152085881062 7.984382101252862 -1.237975111583076e-07 0 0 0
9608 1 2 0 37.36272342111567 11.583327752583687 -2.2287059164628724 0 0 0
9622 1 2 0 43.44023612007412 8.090335687716534 -2.2325209594265796 0 0 0
6824 1 1 0 44.58930517697065 7.077428920190681 -1.6436682758189767 0 0 0
9617 1 2 0 40.82648862404001 8.430062039875454 -2.231550798332031 0 0 0
6816 1 1 0 42.23521979101712 9.035526362131487 -1.6433868706544004 0 0 0
9621 1 2 0 42.46128243373981 10.552005996508317 -2.2306878725628176 0 0 0
13224 1 2 0 44.58644320276482 7.073429945281363 -3.5657055202928353e-07 0 0 0
9634 1 2 0 46.036432703770494 7.5910875035395025 -2.230135752774393 0 0 0
9639 1 2 0 48.65465263960052 7.168689102587427 -2.2284227417154923 0 0 0
6826 1 1 0 47.469215265062736 8.144575527653828 -1.6437000808727547 0 0 0
6835 1 1 0 49.81795073301268 6.165663908083448 -1.6438307112419583 0 0 0
9636 1 2 0 47.73486847637209 9.658689977109693 -2.227484489089557 0 0 0
6825 1 1 0 47.95023345668296 11.182033458958363 -1.644048314997584 0 0 0
13226 1 2 0 47.459222051196285 8.14879789812898 -2.107227719833379e-07 0 0 0
9651 1 2 0 51.26690416298044 6.690617897601031 -2.2248548068776373 0 0 0
6834 1 1 0 52.704497429743355 7.246902085889834 -1.6438823247947976 0 0 0
9652 1 2 0 53.89451152836837 6.271211760421792 -2.2252791692771257 0 0 0
6832 1 1 0 53.222202481505896 10.286941162721352 -1.6440351622279592 0 0 0
9648 1 2 0 52.97488870668874 8.764800907887299 -2.2232680821348016 0 0 0
9661 1 2 0 56.51387962653858 5.787212845552974 -2.220779634408764 0 0 0
9649 1 2 0 54.6574825389246 10.858018683115302 -2.220961323861211 0 0 0
9647 1 2 0 52.00878510423197 11.235946392311844 -2.224736892367394 0 0 0
6836 1 1 0 56.102532132817544 11.405718015077014 -1.644190970772456 0 0 0
13236 1 2 0 56.10100241340004 11.407353751289747 -4.3458363947538754e-07 0 0 0
13232 1 2 0 53.22927875200356 10.287862825999127 -1.1978830144645267e-08 0 0 0
6841 1 1 0 57.94576905252454 6.368437608925139 -1.644084722397244 0 0 0
9663 1 2 0 58.17999965110613 7.89645910295631 -2.219675430126561 0 0 0
6842 1 1 0 58.463781621530536 9.41595377369354 -1.644116114969011 0 0 0
9655 1 2 0 57.290232767907085 10.419278917903652 -2.2213620661073645 0 0 0
9665 1 2 0 59.91680439271207 9.94019944333496 -2.2204386263397553 0 0 0
8225 1 1 0 61.34943150424118 10.518681661044857 -1.6441587260356267 0 0 0
13242 1 2 0 58.465645435656974 9.415137920394711 -8.31156459259976e-08 0 0 0
14625 1 2 0 61.35205871254322 10.520789865093036 -6.25584748289854e-08 0 0 0
11762 1 2 0 63.41049144215735 7.015985176108426 -2.2218635969653566 0 0 0
11760 1 2 0 62.560849230942644 9.558671804189386 -2.220464104800654 0 0 0
8227 1 1 0 63.71346346096693 8.528996805709674 -1.643942827203645 0 0 0
11763 1 2 0 65.1828239496993 8.998203501025305 -2.220769756571522 0 0 0
8231 1 1 0 66.60343818471709 9.601717811636153 -1.6440129537134027 0 0 0
11769 1 2 0 67.84436794614521 8.675250721159493 -2.219259786267201 0 0 0
11768 1 2 0 66.73360249175167 11.141130774434387 -2.2191019848857767 0 0 0
14627 1 2 0 63.70922490245061 8.533955215495007 -1.4435175439462493e-06 0 0 0
8234 1 1 0 68.99780020990839 7.6411170080643895 -1.644001231281692 0 0 0
11773 1 2 0 68.70304197274768 6.126940603588053 -2.2235739417309626 0 0 0
11774 1 2 0 70.47471881214422 8.091801994900948 -2.216415807944783 0 0 0
11784 1 2 0 73.14374793326488 7.754967762978835 -2.21636192520135 0 0 0
8240 1 1 0 71.90160960461408 8.68678856550261 -1.6439366667059465 0 0 0
11783 1 2 0 72.01121875376435 10.230080365218331 -2.2157289998350578 0 0 0
14634 1 2 0 68.9851509645996 7.646376606241956 -7.64049824840253e-08 0 0 0
14640 1 2 0 71.92688703545177 8.68079192317041 -3.056400339477889e-07 0 0 0
8243 1 1 0 74.32099636789141 6.740597012269191 -1.6442758828930448 0 0 0
11788 1 2 0 75.79209894699443 7.21464000366759 -2.2142313888112124 0 0 0
8245 1 1 0 77.20526097516439 7.842481920430878 -1.6433471283656211 0 0 0
11793 1 2 0 78.48840302005088 6.982603627662427 -2.230536938535391 0 0 0
11790 1 2 0 77.26837558381861 9.381890717020742 -2.216240011270932 0 0 0
8244 1 1 0 77.66285743622004 10.874535172363498 -1.6462216599226218 0 0 0
14643 1 2 0 74.3031971244789 6.750414666228757 -5.119237027294644e-07 0 0 0
8257 1 1 0 79.65846898526962 5.97545401775627 -1.64493911299007 0 0 0
11810 1 2 0 81.13198623434594 6.519252920122453 -2.180989029460148 0 0 0
8256 1 1 0 82.66624004215245 6.1803818033849485 -1.6421688006448036 0 0 0
11808 1 2 0 83.79667037287217 7.243742170640478 -2.2202436879669456 0 0 0
11801 1 2 0 84.04524630701742 9.85603465932002 -2.209949796658389 0 0 0
11792 1 2 0 79.2011761930026 11.114599714167957 -2.2183217886415383 0 0 0
11799 1 2 0 81.94424551878215 11.562881074762327 -2.2306229393278088 0 0 0
8250 1 1 0 83.48289506330984 11.299182325031644 -1.646313525502452 0 0 0
11813 1 2 0 88.32599375042302 6.574520374009434 -2.194095634150871 0 0 0
8258 1 1 0 87.86030765529145 8.067477005191897 -1.6448492080200214 0 0 0
8255 1 1 0 84.7535927089035 8.475506315674687 -1.6457958754639472 0 0 0
11809 1 2 0 86.31974796059829 8.370402629317384 -2.204816849271306 0 0 0
11814 1 2 0 88.9547220327914 9.20739720435414 -2.186965005947129 0 0 0
14655 1 2 0 84.78119824636738 8.469741269153566 -3.9820853583996636e-07 0 0 0
14658 1 2 0 87.83786845867381 8.092911621989174 -2.3383653435283044e-07 0 0 0
11825 1 2 0 92.63587490025438 6.497566221364621 -2.2056030039896015 0 0 0
8265 1 1 0 92.90350049835651 8.025954640276286 -1.6441454665441204 0 0 0
8262 1 1 0 90.40504715649607 9.83181315851446 -1.644446000995066 0 0 0
11821 1 2 0 91.65351389101484 8.924802072817013 -2.2204452509088597 0 0 0
11826 1 2 0 94.33198949593518 8.665891918289248 -2.205026463433296 0 0 0
8269 1 1 0 95.8940140828038 8.580629846195968 -1.6417649431742078 0 0 0
14665 1 2 0 92.91116907293673 8.027109435289727 -2.039256721685281e-07 0 0 0
11820 1 2 0 90.74085532922624 11.347613819253633 -2.214273909363301 0 0 0
11831 1 2 0 96.40989320634108 7.10717725296537 -2.1816236232174786 0 0 0
8271 1 1 0 97.65141503390961 6.176387846830985 -1.6468148286299515 0 0 0
8977 1 2 0 99.03264954785404 6.89903088021331 -2.2276681665282503 0 0 0
6409 1 1 0 100.50089072639125 6.4810290114984515 -1.6040948459711128 0 0 0
9090 1 2 0 96.95167516249916 9.728141880159287 -2.2145877288678086 0 0 0
6476 1 1 0 97.88102027558396 10.98452698586292 -1.6442044938290565 0 0 0
8972 1 2 0 99.44352853527812 11.087352450760468 -2.2120121218733786 0 0 0
6406 1 1 0 101.00232284439561 11.144479399578051 -1.6421418198904354 0 0 0
14671 1 2 0 97.64916508642531 6.121544427319036 -3.9035302960923086e-07 0 0 0
12809 1 2 0 100.4858570630508 6.829222770692661 -7.026020467337164e-07 0 0 0
12806 1 2 0 100.93884777083395 11.221507835584587 -1.198707400800513e-07 0 0 0
9548 1 2 0 7.981699682212266 12.728971414422757 -2.183807604928469 0 0 0
6779 1 1 0 6.471297594471572 12.929564314722418 -1.6375580705960635 0 0 0
6771 1 1 0 9.091646150566925 11.652538045727606 -1.6383049150352784 0 0 0
9547 1 2 0 10.43399847503327 12.361266702048576 -2.254877416823775 0 0 0
6774 1 1 0 11.582160750602926 13.38509283547594 -1.638259620432004 0 0 0
9552 1 2 0 11.586973056173075 14.929251027716548 -2.2317136608874084 0 0 0
9668 1 2 0 7.663349646895064 16.30227649870994 -2.227478384733613 0 0 0
6843 1 1 0 11.54316180243599 16.494616973248213 -1.6472686920590869 0 0 0
13174 1 2 0 11.434598356715654 13.502862851534154 -1.598027933287421e-07 0 0 0
6844 1 1 0 8.637164549634432 17.50138166909818 -1.64227014419919 0 0 0
9666 1 2 0 10.163626383334785 17.229239975860693 -2.215067629325263 0 0 0
9550 1 2 0 12.924172998739563 12.536024933669184 -2.1370024233114386 0 0 0
9569 1 2 0 16.38778725764061 11.994104635811013 -2.2873518304574185 0 0 0
9574 1 2 0 16.46861437715807 14.617222509110066 -2.1762099311601966 0 0 0
6789 1 1 0 16.658067458227716 16.182901175658646 -1.6394853883189116 0 0 0
6787 1 1 0 17.22170757952861 13.240185517526003 -1.6423788185892685 0 0 0
13187 1 2 0 17.22747752641916 13.296653981028363 -2.013154497396639e-08 0 0 0
9667 1 2 0 12.843712599067613 17.370892781491435 -2.189197817961271 0 0 0
9577 1 2 0 15.522014940573726 17.248278392014978 -2.2233999320518674 0 0 0
9573 1 2 0 21.344331178394953 12.172604844607934 -2.266375688864111 0 0 0
9571 1 2 0 18.742005222613127 12.85931625454568 -2.15163734273308 0 0 0
6786 1 1 0 20.254434845755338 13.22920197928401 -1.6321987376186744 0 0 0
9572 1 2 0 20.443109833115628 14.765311382532696 -2.1897866249776117 0 0 0
9575 1 2 0 18.180814474042155 16.551708637743555 -2.1772660098936973 0 0 0
6788 1 1 0 19.690855378274843 16.13336571973122 -1.6451514065806025 0 0 0
13186 1 2 0 20.409755196299525 13.179142373477989 -4.392876402181418e-08 0 0 0
9576 1 2 0 20.664568375959835 17.244514964736602 -2.2997736102373225 0 0 0
9579 1 2 0 23.945873295030413 11.812770402594728 -2.169107243000996 0 0 0
6795 1 1 0 25.491149917026405 12.11068584799195 -1.6417828305999391 0 0 0
9586 1 2 0 25.9890035577629 13.633952982943109 -2.176523906248349 0 0 0
6796 1 1 0 26.419434176406934 15.184237510831244 -1.647000881534958 0 0 0
9588 1 2 0 25.41041121922275 16.42696840429573 -2.1909014415469117 0 0 0
9589 1 2 0 27.964676456599634 15.550562014758333 -2.16837042793746 0 0 0
13195 1 2 0 25.58576153613085 12.148083005044933 -2.473583436286807e-07 0 0 0
9597 1 2 0 31.471276081259933 12.372542067629459 -2.2025673685576184 0 0 0
6803 1 1 0 31.776641566371566 13.922138069836167 -1.6465905045273108 0 0 0
9600 1 2 0 30.624142810605434 15.007474128633948 -2.185182029735934 0 0 0
9601 1 2 0 33.28656701604611 14.363666693329993 -2.193941472806275 0 0 0
6804 1 1 0 29.458049342067998 16.08619746111404 -1.6448562309940706 0 0 0
13203 1 2 0 31.76248905573666 13.921319918930491 -1.931993056028229e-07 0 0 0
6810 1 1 0 34.77580029288984 14.842206681888102 -1.6441034581775238 0 0 0
9610 1 2 0 35.990963829421716 13.870791792151051 -2.2159329550078515 0 0 0
6809 1 1 0 37.34454383829651 13.116273954965052 -1.6435358241211266 0 0 0
9611 1 2 0 38.742956789022074 13.781229090283752 -2.217116689404989 0 0 0
9612 1 2 0 35.11024751077355 16.346722703968855 -2.2261964669106047 0 0 0
13210 1 2 0 34.767837808806405 14.83296274189684 -2.522072739359353e-08 0 0 0
6817 1 1 0 42.643006472606814 12.076988288289174 -1.644287280642905 0 0 0
9624 1 2 0 44.0718384235322 12.67100274798292 -2.2189549284399512 0 0 0
6818 1 1 0 40.26988862927557 14.029195163821473 -1.6434417485952721 0 0 0
9623 1 2 0 41.36356444060882 12.940306657370641 -2.223540171881481 0 0 0
9625 1 2 0 40.761810715884614 15.478837054497511 -2.2257370562441876 0 0 0
6853 1 1 0 40.85864204225567 17.005434960984253 -1.6428932399623708 0 0 0
9696 1 2 0 44.882116826240015 17.042886963519425 -2.2269660035514485 0 0 0
13253 1 2 0 40.86358633625781 17.045132248960947 -7.596529905006205e-08 0 0 0
9637 1 2 0 46.7112873062402 12.099739192613137 -2.2229019247181947 0 0 0
6833 1 1 0 50.847633253015594 12.247877317415396 -1.6440164352881188 0 0 0
9638 1 2 0 49.38091011576027 11.76401418236388 -2.22198894854179 0 0 0
6827 1 1 0 45.552585666077874 13.11737573619989 -1.644024913938713 0 0 0
9640 1 2 0 45.90359573901889 14.613279800930494 -2.229409980224098 0 0 0
6862 1 1 0 46.12095456003252 16.133350136877162 -1.6437919327417507 0 0 0
9697 1 2 0 47.54298231249851 16.72816994387238 -2.225546580252902 0 0 0
9657 1 2 0 50.15621299153174 16.188036884741233 -2.229235179764856 0 0 0
13262 1 2 0 46.13222727595807 16.13712674084435 -2.58864586477148e-07 0 0 0
6864 1 1 0 49.008076322180635 17.207212338771097 -1.6438818776695916 0 0 0
9650 1 2 0 51.18019454250182 13.751768102575403 -2.224863566702278 0 0 0
6837 1 1 0 51.39251548731787 15.276715777757964 -1.6438611817028408 0 0 0
9656 1 2 0 52.80705884273059 15.89142222823362 -2.2230600021556697 0 0 0
9654 1 2 0 56.365091666810784 12.929901424024784 -2.219500966221066 0 0 0
9658 1 2 0 55.423816826634 15.436492402746053 -2.223270948307841 0 0 0
6839 1 1 0 56.613606688602154 14.456116431868539 -1.6440715978326175 0 0 0
6838 1 1 0 54.250966856358595 16.436859818595916 -1.6441519110937064 0 0 0
13237 1 2 0 51.400266403287844 15.276978331683665 -8.529563274680145e-08 0 0 0
13239 1 2 0 56.61414771430432 14.447655600648034 -6.549963820646866e-08 0 0 0
11759 1 2 0 61.56228269893665 12.050646669867545 -2.2192416021525503 0 0 0
9660 1 2 0 58.04671379551664 15.029595072307515 -2.221447404505377 0 0 0
9776 1 2 0 60.66238813146213 14.586287866856035 -2.220563637107849 0 0 0
8226 1 1 0 61.827997538704345 13.573786570719767 -1.6439660271849945 0 0 0
6913 1 1 0 59.48646643166807 15.587222966558075 -1.6441597409294797 0 0 0
14626 1 2 0 61.82236603594059 13.570814484982604 -1.216498829279948e-07 0 0 0
9775 1 2 0 59.75183703271895 17.112846108601463 -2.219462538220985 0 0 0
8232 1 1 0 67.0347621509988 12.656315057946044 -1.6438483080692916 0 0 0
11761 1 2 0 63.27677003651465 14.100855572876103 -2.222771884862015 0 0 0
8233 1 1 0 64.7009794257571 14.693050455233385 -1.6443025188087947 0 0 0
11770 1 2 0 65.9105763724068 13.723488919436635 -2.216520648229966 0 0 0
11772 1 2 0 64.88068014871003 16.23282240955792 -2.2178766287588063 0 0 0
14632 1 2 0 67.0164028604946 12.667467010357004 -1.1679720960638266e-07 0 0 0
14633 1 2 0 64.7066003289532 14.701469881973606 -8.878556087305744e-08 0 0 0
8241 1 1 0 72.31535468217231 11.74804009982596 -1.6442537248156246 0 0 0
11785 1 2 0 71.18387766616534 12.822490288793226 -2.209790047086391 0 0 0
11771 1 2 0 68.51679973416883 13.07418769406782 -2.222165696757037 0 0 0
8242 1 1 0 69.91353694658974 13.726400454620151 -1.644236999331406 0 0 0
11787 1 2 0 69.93110211993668 15.276732727550385 -2.2149003696043525 0 0 0
14641 1 2 0 72.2951345385646 11.76567471819696 -3.018242546411403e-07 0 0 0
8276 1 1 0 70.14753425339421 16.810121295140593 -1.643317403564612 0 0 0
11840 1 2 0 71.59959368341342 17.272801051010447 -2.239187605437118 0 0 0
11786 1 2 0 73.81561344649678 12.127160307988383 -2.2140134480862557 0 0 0
8246 1 1 0 75.21320601521559 12.795064420521683 -1.6443888848079127 0 0 0
11791 1 2 0 76.53226338299389 11.957864230313868 -2.207083227510813 0 0 0
11794 1 2 0 75.19662918933665 14.343105554721372 -2.2184359984876485 0 0 0
8279 1 1 0 75.34452278018126 15.880626845367305 -1.6433798201542236 0 0 0
11845 1 2 0 76.7767963980814 16.416221004537242 -2.2363198920090004 0 0 0
14646 1 2 0 75.23663904358662 12.780856339685442 -2.65907845690587e-07 0 0 0
11844 1 2 0 74.18897780929076 16.91034800060114 -2.2194670831477157 0 0 0
8281 1 1 0 78.16910880481953 17.04195379200905 -1.6454492483704257 0 0 0
14681 1 2 0 78.17591015524005 17.023713134662305 -1.6740302086266584e-07 0 0 0
8251 1 1 0 80.45907012365906 12.01618433725002 -1.635407890021372 0 0 0
11800 1 2 0 84.56108181261693 12.41318391882987 -2.220076617198263 0 0 0
11802 1 2 0 79.99077851192548 13.52448712677682 -2.1090212060642917 0 0 0
8253 1 1 0 80.44767789183155 15.024297514110179 -1.6341285118598958 0 0 0
11805 1 2 0 81.96482746723973 15.154892525529633 -2.2462077675155823 0 0 0
11803 1 2 0 84.67311115184368 15.051631022008733 -2.1992194186601823 0 0 0
11806 1 2 0 79.41584346724146 16.144898264083505 -2.2538897623626237 0 0 0
8254 1 1 0 83.33483109626249 15.82319230168519 -1.6430424828940464 0 0 0
14653 1 2 0 80.46477997365865 15.179305586827022 -4.266173847318346e-07 0 0 0
11807 1 2 0 83.3238673552847 17.324616554407594 -2.2652434676491464 0 0 0
14651 1 2 0 80.55012267989692 11.888928248640935 -7.542975397614165e-08 0 0 0
14654 1 2 0 83.3379432555867 15.824961585159068 -5.04250071403583e-08 0 0 0
8252 1 1 0 85.42632244031712 13.692058692784753 -1.6423132703827064 0 0 0
11804 1 2 0 86.98098632078619 13.68699352522509 -2.208521611583735 0 0 0
8264 1 1 0 88.35883215488116 14.423343914398064 -1.6445430970181507 0 0 0
11822 1 2 0 89.73491819451526 13.722545855505741 -2.2108528708796746 0 0 0
11824 1 2 0 88.36849170737538 15.948761791429543 -2.249612777836152 0 0 0
14652 1 2 0 85.44654452360787 13.655064679829872 -6.583103788707617e-08 0 0 0
14664 1 2 0 88.3540490421973 14.412029639075138 -5.153600134231328e-07 0 0 0
8298 1 1 0 88.75585374764732 17.416602207019746 -1.6420831585773872 0 0 0
8263 1 1 0 91.03559754236792 12.874639819355549 -1.6454102279081402 0 0 0
11823 1 2 0 92.46861841989484 13.531848450376007 -2.207482667409745 0 0 0
8270 1 1 0 93.72516961364401 14.479727886780791 -1.6390100521220128 0 0 0
9091 1 2 0 95.24169180910636 14.10330683907039 -2.2151604893163395 0 0 0
11832 1 2 0 93.47070866517484 16.03504154326447 -2.139122637994601 0 0 0
14663 1 2 0 91.0799837478589 12.87849015926629 -1.8081452553613813e-07 0 0 0
14670 1 2 0 93.72860782245218 14.344768451983306 -3.518880751640299e-07 0 0 0
9089 1 2 0 97.11365220388723 12.317528244389374 -2.2152976936232456 0 0 0
6477 1 1 0 96.77614518317547 13.816537780581779 -1.6436135764086879 0 0 0
9087 1 2 0 98.0209615943011 14.780940052411415 -2.186275839362593 0 0 0
6475 1 1 0 98.97319385792757 16.03647714339681 -1.6415748185134962 0 0 0
9085 1 2 0 100.5492701307672 16.09207438479976 -2.2139311742458334 0 0 0
9088 1 2 0 98.17898276003248 17.379371280563724 -2.182434640520141 0 0 0
9669 1 2 0 7.895549948752118 18.846796310865482 -2.228800416171981 0 0 0
6885 1 1 0 7.111684749285383 20.169542730923183 -1.6440041465327155 0 0 0
9729 1 2 0 8.048774089514772 21.357100187283 -2.236477199418742 0 0 0
6883 1 1 0 8.520325296190336 22.798833173327054 -1.6384511304315046 0 0 0
9728 1 2 0 10.101495583651072 22.765001578969905 -2.1756007637853196 0 0 0
6884 1 1 0 11.64256956075891 23.132811083358646 -1.6404974821123808 0 0 0
13284 1 2 0 11.712675534216723 23.025035859491787 -5.171416356800894e-07 0 0 0
6848 1 1 0 14.220165748224522 18.137421445342152 -1.6461191555888515 0 0 0
9674 1 2 0 14.242921948047263 19.729774065812848 -2.163269616131999 0 0 0
9726 1 2 0 12.96282239495004 22.208911906209003 -2.1748065886237784 0 0 0
6882 1 1 0 14.32154755223266 21.330696032106268 -1.6479057523702159 0 0 0
9727 1 2 0 15.799977009422758 21.96268272073808 -2.171193609456357 0 0 0
13282 1 2 0 14.321847489284295 21.35566084483848 -1.8331453961261157e-07 0 0 0
6888 1 1 0 17.326814783554607 22.434367224853233 -1.64650280629417 0 0 0
6798 1 1 0 21.59909171534315 18.40219495557818 -1.647993844926967 0 0 0
9592 1 2 0 20.825475091861417 19.727351169484177 -2.2604473457192085 0 0 0
9709 1 2 0 18.554540220675978 21.435371605853756 -2.2154147287438795 0 0 0
6870 1 1 0 20.057555890091606 21.03879790640119 -1.6147014876191734 0 0 0
9708 1 2 0 21.14179852551972 22.213633153450072 -1.9860780063053751 0 0 0
6871 1 1 0 22.70390012811058 22.61298191927569 -1.6216665623768054 0 0 0
9590 1 2 0 23.0981729089703 18.000225306766364 -2.2116967508871035 0 0 0
6797 1 1 0 24.64422399213736 17.8137299207027 -1.6398032326943286 0 0 0
9591 1 2 0 25.354366691768146 19.23364587980669 -2.1392680912320046 0 0 0
6869 1 1 0 25.260668298920923 20.82064337823054 -1.6447805650938603 0 0 0
9706 1 2 0 23.93511668585978 21.668124100821117 -2.241482913996396 0 0 0
9707 1 2 0 26.659312465962415 21.504091530307136 -2.205224539863306 0 0 0
6873 1 1 0 28.21071960226171 21.702615929406843 -1.6446186727271777 0 0 0
13273 1 2 0 28.236443191712127 21.682580601017126 -2.0290433685500043e-07 0 0 0
9602 1 2 0 29.731790755359082 17.65586889208109 -2.175822672978122 0 0 0
6872 1 1 0 30.155098442638486 19.19273001277871 -1.6450369469144672 0 0 0
9712 1 2 0 31.67905689010795 19.554843429281494 -2.203214731359446 0 0 0
6874 1 1 0 33.19183849539515 19.935352250105563 -1.6447818274766104 0 0 0
9711 1 2 0 29.15078296226906 20.42227102167118 -2.178992411597737 0 0 0
9714 1 2 0 33.76383960671068 21.370675710473304 -2.2327023293616652 0 0 0
9684 1 2 0 34.261951959830824 18.822912476633952 -2.2171233324120805 0 0 0
9713 1 2 0 28.68255039417174 23.217137699959064 -2.172187859179286 0 0 0
6894 1 1 0 34.01506082999816 22.88903420626754 -1.6398939932436847 0 0 0
6854 1 1 0 35.45300220513776 17.84683863916024 -1.6435490580277485 0 0 0
9683 1 2 0 36.91968784238009 18.34413562218349 -2.222398846085706 0 0 0
6855 1 1 0 38.39342417636247 18.807950864716013 -1.6435276109145667 0 0 0
9681 1 2 0 39.551353372219566 17.80216427383238 -2.233472429688453 0 0 0
9685 1 2 0 38.81290489830738 20.279483101401553 -2.2312223076834914 0 0 0
6893 1 1 0 39.08615713019242 21.784449780251496 -1.6440800873389176 0 0 0
13254 1 2 0 35.47830924091202 17.849122788171183 -3.004522684781108e-07 0 0 0
13255 1 2 0 38.36744629162226 18.813394542329572 -1.4918335810440443e-07 0 0 0
13293 1 2 0 39.10621494499666 21.81265032128005 -3.4952476159987263e-07 0 0 0
9743 1 2 0 37.835247114377836 22.646839224469176 -2.2527303093140754 0 0 0
9682 1 2 0 42.25671521574072 17.639303166556548 -2.232612594746144 0 0 0
6863 1 1 0 43.73311551118292 18.062101528081524 -1.6438767423601548 0 0 0
9698 1 2 0 44.0782931908361 19.549109619113167 -2.240637794961105 0 0 0
6900 1 1 0 44.32175800856229 21.054902272202128 -1.6432693706413588 0 0 0
9755 1 2 0 43.129172636873975 22.00839562084746 -2.2338030885064732 0 0 0
13263 1 2 0 43.729216850632945 18.057136162951313 -6.444915771702463e-07 0 0 0
9744 1 2 0 40.50661553328544 22.3723641756776 -2.228029797748124 0 0 0
6901 1 1 0 41.92861882313419 22.956079876175263 -1.6440869116435204 0 0 0
13300 1 2 0 44.32862758287874 21.053753241107938 -1.243613628458152e-08 0 0 0
9699 1 2 0 49.36339904944046 18.702704831812834 -2.2280925971765764 0 0 0
6879 1 1 0 49.57593514925788 20.22381170761155 -1.643624085487778 0 0 0
9756 1 2 0 45.74626107724495 21.60527755276455 -2.239685027970721 0 0 0
9722 1 2 0 48.34759476631028 21.13047243385753 -2.2403424310237363 0 0 0
6903 1 1 0 47.18526884470168 22.117313400841976 -1.6433281102740365 0 0 0
9721 1 2 0 50.97454360074326 20.85837026936942 -2.2285845524999397 0 0 0
6881 1 1 0 52.3958787894929 21.445768578759143 -1.643926788198704 0 0 0
9723 1 2 0 53.5743800928033 20.461401657565485 -2.2291493427226388 0 0 0
9659 1 2 0 54.526522737780475 17.9584926322864 -2.2204418463607074 0 0 0
6880 1 1 0 54.76163796680078 19.486600658181036 -1.6439152558640975 0 0 0
9724 1 2 0 56.17409835577792 20.09927756688927 -2.2244930275803756 0 0 0
13281 1 2 0 52.39624453191231 21.454622425313183 -6.395885259354917e-07 0 0 0
9725 1 2 0 52.63433665316694 22.971580728066925 -2.2213744911184246 0 0 0
6914 1 1 0 59.95240193224642 18.64756355494748 -1.6437617781362674 0 0 0
9773 1 2 0 58.74617753794748 19.599727816288393 -2.2260172649949452 0 0 0
9777 1 2 0 61.34722082544822 19.299582003761614 -2.2237673490749477 0 0 0
6912 1 1 0 57.61590143854792 20.641039492879948 -1.6438058866226533 0 0 0
9774 1 2 0 57.93662176331266 22.15355346675319 -2.2215508444647165 0 0 0
13314 1 2 0 59.95472590519464 18.627653646755157 -2.1159215577320258e-07 0 0 0
13312 1 2 0 57.60993800116028 20.660226535511683 -1.254765465217913e-08 0 0 0
8277 1 1 0 65.07459554674844 17.769271399258518 -1.6436387885173163 0 0 0
8284 1 1 0 62.79016725931806 19.83890640623065 -1.6439183278660228 0 0 0
11842 1 2 0 63.90342961057908 18.77148169319306 -2.220976536511156 0 0 0
11841 1 2 0 66.48405093231155 18.371854549663304 -2.2306691855971685 0 0 0
8278 1 1 0 67.90486805652114 18.95053432362521 -1.6441616291934111 0 0 0
11850 1 2 0 63.0959012608705 21.3615763391024 -2.216629410089445 0 0 0
14684 1 2 0 62.79351810068147 19.863111599512063 -2.1639305407670014e-07 0 0 0
8305 1 1 0 63.262338457478855 22.906109271912054 -1.643764426159732 0 0 0
11879 1 2 0 67.17426242215915 23.117745876185467 -2.210175318467564 0 0 0
14705 1 2 0 63.26661295636737 22.879372591426776 -2.397304988830667e-08 0 0 0
11839 1 2 0 69.04842022850762 17.902068237547848 -2.2151424577690038 0 0 0
8280 1 1 0 72.99170987680775 17.892991239797222 -1.6437989853335597 0 0 0
11846 1 2 0 73.03735392641904 19.438014030127345 -2.2198575194515366 0 0 0
11843 1 2 0 68.08714852522702 20.49751303446392 -2.211330504618083 0 0 0
8304 1 1 0 68.29213281613802 22.04254165813408 -1.6438017233016915 0 0 0
11883 1 2 0 72.26724583065841 22.110715037634677 -2.215783909958723 0 0 0
8307 1 1 0 73.30324345349561 20.960562579998857 -1.6430384037754422 0 0 0
14678 1 2 0 67.92628784577819 18.970547300981735 -2.2278189067127987e-07 0 0 0
11880 1 2 0 69.71736974962795 22.60321788589671 -2.23210716421077 0 0 0
8308 1 1 0 71.13863016873007 23.175996138267482 -1.644047189554999 0 0 0
14708 1 2 0 71.16140181718015 23.19670411656307 -1.863977716568687e-07 0 0 0
11847 1 2 0 78.2645051317465 18.576829344634525 -2.2248528864238533 0 0 0
8294 1 1 0 78.50307483253314 20.09674398963237 -1.6441352013642787 0 0 0
11884 1 2 0 74.78006216958451 21.330737049444405 -2.2395556861637647 0 0 0
11866 1 2 0 77.38363319675626 21.143242812901462 -2.2384615410478284 0 0 0
8311 1 1 0 76.1299469791529 22.02905772131442 -1.6431335357351031 0 0 0
14711 1 2 0 76.17555106898514 22.020320030875567 -1.390067992875383e-07 0 0 0
11863 1 2 0 82.43977713643793 19.759563916739225 -2.250155228086338 0 0 0
8293 1 1 0 83.61292384527182 18.800819650973185 -1.6434504910965861 0 0 0
11865 1 2 0 79.93944365515986 20.618906206979624 -2.241824217308357 0 0 0
8295 1 1 0 81.43656358633183 20.90019983194835 -1.6430706657283796 0 0 0
11867 1 2 0 81.99615605823479 22.319310894867865 -2.2329354650475195 0 0 0
11864 1 2 0 85.06329016791403 19.210237854533045 -2.2638665777693308 0 0 0
8299 1 1 0 86.54437776405149 19.49302979523819 -1.640628471576045 0 0 0
11871 1 2 0 87.64012154621528 18.449515620894424 -2.2641557133507737 0 0 0
11872 1 2 0 90.27419945844423 17.786849457406788 -2.1564537985049066 0 0 0
11873 1 2 0 86.88144181276479 20.974950650229 -2.21067200641876 0 0 0
14722 1 2 0 90.30430596649835 21.825936443817394 -3.8003105247119933e-08 0 0 0
11898 1 2 0 88.93980157892254 22.527929380641083 -2.207844689482345 0 0 0
8317 1 1 0 87.39920159816361 22.40822986240368 -1.6379579950588803 0 0 0
8283 1 1 0 93.96444130822363 17.534583173324535 -1.6425566971716434 0 0 0
8300 1 1 0 91.31877940142182 18.957606603247733 -1.6404688067010276 0 0 0
11849 1 2 0 92.82796548587243 18.597158519317016 -2.223070871116113 0 0 0
9140 1 2 0 95.46948709075602 17.907920343497437 -2.2335690996791504 0 0 0
11874 1 2 0 90.70739205837052 20.367980658660308 -2.2307376963985543 0 0 0
8322 1 1 0 90.34817743967427 21.869161873807645 -1.6441387429421257 0 0 0
14700 1 2 0 91.39728379881342 19.01983646611044 -2.818182351840608e-07 0 0 0
11905 1 2 0 91.51737826818898 22.812244512516504 -2.252610715652195 0 0 0