LAMMPS data file via write_data, version 2 Aug 2023, timestep = 1454, units = metal

15552 atoms
2 atom types

6.490009650625839 197.5903322279873 xlo xhi
5.744542787580033 171.90304849022263 ylo yhi
-100 100 zlo zhi

Masses

1 28.085
2 15.999

Atoms # full

6886 1 1 0 6.9001003755052075 6.164281189516206 -1.6397674444217991 0 0 0
9718 1 2 0 7.496021101419358 7.50358674131738 -2.336827224734825 0 0 0
6882 1 1 0 8.237161568212834 8.77099537712554 -1.6390069267375056 0 0 0
9716 1 2 0 7.4169462526118926 10.107808828702767 -2.1925697315950345 0 0 0
9623 1 2 0 11.403045554911262 10.189868844553663 -2.1394970419856865 0 0 0
9627 1 2 0 9.735630207344476 8.365712211821865 -2.200939502952462 0 0 0
6827 1 1 0 11.265103481087554 8.609521269290063 -1.6345507581132523 0 0 0
13366 1 2 0 7.016838083235841 6.178298137894843 -1.5438062921815486e-07 0 0 0
13362 1 2 0 8.227007368032327 8.76516290692633 -4.1307727332912916e-07 0 0 0
13306 1 2 0 9.867422921020028 10.957221884285023 -7.717403609547652e-08 0 0 0
9626 1 2 0 12.399837651408067 7.554545081448903 -2.2352983541390805 0 0 0
6829 1 1 0 13.492627434648053 6.407581230263702 -1.650524417940902 0 0 0
9621 1 2 0 15.042765368860488 6.95607468027116 -2.154680610976858 0 0 0
6825 1 1 0 16.491657846767175 7.710952845409514 -1.6368729331320029 0 0 0
9613 1 2 0 16.896143927915787 9.24568553202317 -2.1930678394865577 0 0 0
6820 1 1 0 17.12898866991555 10.799230434772383 -1.648859488620209 0 0 0
13305 1 2 0 16.346284845225785 7.769825108289421 -1.0981896996375738e-07 0 0 0
13300 1 2 0 17.235705526658265 10.771489169864958 -1.561145951211804e-07 0 0 0
9622 1 2 0 17.910664481131516 6.986553579577538 -2.0914178098950624 0 0 0
6833 1 1 0 19.020947770731738 5.848983744898525 -1.632060685000334 0 0 0
9634 1 2 0 20.579388557746693 6.310381760333196 -2.1641217243016118 0 0 0
6832 1 1 0 22.108803457280516 6.880531550883603 -1.6472486981668268 0 0 0
9631 1 2 0 22.489376294782037 8.448112140125929 -2.1770637726053668 0 0 0
6830 1 1 0 23.340534480925786 9.80529837475782 -1.6386348125314085 0 0 0
13312 1 2 0 22.059517277891377 6.891130754369934 -5.555709495658261e-08 0 0 0
13310 1 2 0 23.19904264655943 9.803813341870612 -1.366269376277062e-07 0 0 0
9635 1 2 0 23.39399352223028 5.909317826390132 -2.1375649494211877 0 1 0
9642 1 2 0 28.085374296083096 6.452900576541531 -2.1758407203977286 0 0 0
6837 1 1 0 28.53692114342161 7.9687360824127405 -1.6449144182602822 0 0 0
9632 1 2 0 24.926205751211832 9.667372476968556 -2.12096325272328 0 0 0
9638 1 2 0 27.5147056747815 9.150490514709407 -2.220391304849736 0 0 0
6834 1 1 0 26.404120446349772 10.244150105326117 -1.6399223770913096 0 0 0
13314 1 2 0 26.51605332533679 10.294369177962206 -9.916475122153657e-08 0 0 0
13317 1 2 0 28.516047354318395 7.959358563934118 -2.085860586413696e-07 0 0 0
9648 1 2 0 32.73848010961555 7.967819054838774 -2.2027539100413467 0 0 0
6843 1 1 0 33.90045993018782 6.92255766312601 -1.6450804019864498 0 0 0
9643 1 2 0 30.06274045840915 8.33980732931159 -2.1963217916103623 0 0 0
6840 1 1 0 31.511653092426172 8.936608062772873 -1.6443142002806992 0 0 0
9647 1 2 0 31.755265500124537 10.48390550587673 -2.202945810478457 0 0 0
13323 1 2 0 33.90955941980124 6.918613695005594 -1.0729651444233147e-07 0 0 0
13320 1 2 0 31.50676529680146 8.942977635142121 -2.939237759237151e-07 0 0 0
9653 1 2 0 35.389614202104624 7.410260449153321 -2.209799806391635 0 0 0
6846 1 1 0 36.891196217092094 7.842223369139883 -1.6435929587287892 0 0 0
9658 1 2 0 38.03760224497351 6.80691074026033 -2.216956562068476 0 0 0
6851 1 1 0 39.35945954426706 6.007875242746459 -1.6439641928848063 0 0 0
9657 1 2 0 37.42621865211674 9.293239642276433 -2.2155861510942656 0 0 0
6847 1 1 0 37.576839470816225 10.829361267945913 -1.6430714245655913 0 0 0
13326 1 2 0 36.83976031694088 7.84933842991077 -7.657972385225435e-08 0 0 0
13331 1 2 0 39.39748966413478 6.0347499792353965 -2.9295337389431543e-07 0 0 0
6852 1 1 0 42.23838920905517 7.238269614773781 -1.6441958067013702 0 0 0
9665 1 2 0 40.777520047601264 6.674612975611102 -2.209613042805756 0 0 0
9668 1 2 0 43.456706992167675 6.289996385072393 -2.221046857920546 0 0 0
9667 1 2 0 42.62413589912082 8.74192553949878 -2.210788063138816 0 0 0
6853 1 1 0 42.88072405645349 10.271258355911932 -1.6435436686807907 0 0 0
9669 1 2 0 41.58901250600022 11.099962065421291 -2.228874050949158 0 0 0
9670 1 2 0 44.2823172314813 10.959800121262196 -2.2106266403974466 0 0 0
13333 1 2 0 42.91925955460862 10.282249378242076 -6.817896298005796e-08 0 0 0
9675 1 2 0 46.17001915896145 6.122988541058154 -2.2081688768708436 0 0 0
6859 1 1 0 47.603518391638936 6.750205461809486 -1.6445327406349062 0 0 0
9680 1 2 0 48.85801028212578 5.84381783606353 -2.217976507374868 0 0 0
6858 1 1 0 48.17576710128739 9.810212787212452 -1.6442413144860335 0 0 0
9677 1 2 0 47.87240622982274 8.283783897507941 -2.2093709588196444 0 0 0
9679 1 2 0 49.61381605534054 10.418538341317834 -2.2096632375489214 0 0 0
9678 1 2 0 46.95717139448357 10.761423139777142 -2.2186814271149378 0 0 0
6867 1 1 0 51.033114123697096 11.06828393471871 -1.6443527653867573 0 0 0
6868 1 1 0 52.98062876813453 6.198834203053153 -1.644263551238443 0 0 0
9691 1 2 0 53.24919806908816 7.727769306127106 -2.2134495572059034 0 0 0
6866 1 1 0 53.53004078017536 9.254039409456073 -1.644169995116086 0 0 0
9690 1 2 0 52.289244298831136 10.171520509675448 -2.2214034346210125 0 0 0
9692 1 2 0 54.959506066842266 9.877878247283233 -2.2112734266049108 0 0 0
6870 1 1 0 56.38603494492649 10.508632915313692 -1.6442506819617215 0 0 0
9706 1 2 0 58.61886486907864 7.160207121725623 -2.2150369443077675 0 0 0
9698 1 2 0 57.62996330345484 9.59536943750948 -2.221176938210619 0 0 0
6876 1 1 0 58.879211511918996 8.689262156212159 -1.6441765969023727 0 0 0
9708 1 2 0 60.30098135462875 9.32684032874972 -2.211421445558339 0 0 0
8303 1 1 0 61.73788471961839 9.93223316172716 -1.6444257955036783 0 0 0
11876 1 2 0 63.983529815725475 6.517950152831957 -2.2152768088869097 0 0 0
8305 1 1 0 64.19680420653489 8.055253207770262 -1.6442583344759916 0 0 0
11874 1 2 0 62.951230081826864 8.97216964331682 -2.2174507033879287 0 0 0
11877 1 2 0 65.61102902506188 8.696488023291852 -2.215293633633816 0 0 0
8307 1 1 0 67.054050795046 9.273167358409665 -1.644488255919768 0 0 0
11880 1 2 0 68.23772659514607 8.27187340974891 -2.2160922305808533 0 0 0
11879 1 2 0 67.32485800944053 10.807827202668607 -2.2111387295906733 0 0 0
14787 1 2 0 67.04972574653269 9.283696858965493 -7.041067840186493e-08 0 0 0
8310 1 1 0 69.45083471862924 7.308838906367431 -1.643946491883742 0 0 0
11885 1 2 0 70.87244920076867 7.907688394297073 -2.221441283249749 0 0 0
11884 1 2 0 69.26123895891482 5.771603033078113 -2.218681561599284 0 1 0
11891 1 2 0 73.45036782168711 7.322392301073803 -2.207476014829313 0 0 0
8314 1 1 0 72.33286816888888 8.41216635602577 -1.6445595958436328 0 0 0
11890 1 2 0 72.56924698850987 9.957095809161034 -2.20891720873159 0 0 0
8317 1 1 0 74.68177807118913 6.363499364465036 -1.6433856069993085 0 0 0
11895 1 2 0 76.05657484143663 7.056281335029152 -2.217673330069704 0 0 0
8318 1 1 0 77.54302735897815 7.463407940459575 -1.6441373965410107 0 0 0
11898 1 2 0 78.55595658963806 6.264864452996377 -2.1977330813098996 0 0 0
11897 1 2 0 77.81220851368754 9.010848174273045 -2.203945332400963 0 0 0
8319 1 1 0 77.87033052843346 10.577455539204601 -1.6443109615581948 0 0 0
11900 1 2 0 79.25044801793791 11.260444368000977 -2.226471339717923 0 0 0
14798 1 2 0 77.60119264197391 7.488792238317227 -7.196139490256247e-08 0 0 0
14799 1 2 0 77.83658127789387 10.549933935295073 -3.300240790456515e-08 0 0 0
11910 1 2 0 81.1235894765352 6.19680674658495 -2.2209958296554326 0 0 0
8329 1 1 0 82.52521437147992 6.813427824476103 -1.643253280902054 0 0 0
11916 1 2 0 83.70495916207081 5.847461713550638 -2.253272715923056 0 1 0
11913 1 2 0 82.70584934985403 8.341535121487023 -2.2311960174941876 0 0 0
8327 1 1 0 82.9755629397014 9.858980605115494 -1.6440788183753083 0 0 0
11914 1 2 0 84.4054277978245 10.402288646138881 -2.243012185450394 0 0 0
11912 1 2 0 81.83959659862789 10.893680471821567 -2.226367483170324 0 0 0
14809 1 2 0 82.55308083292937 6.8255143025625395 -1.6944596328259917e-07 0 0 0
14807 1 2 0 82.97677439536896 9.830351586410883 -1.2269619296858904e-07 0 0 0
8338 1 1 0 87.57527278753557 5.957057074202482 -1.6364683353832434 0 0 0
11928 1 2 0 87.78188050749857 7.456960311093275 -2.260267603425702 0 0 0
11922 1 2 0 86.99295935678242 9.939100168838424 -2.2487939416016967 0 0 0
8337 1 1 0 88.13649388256663 8.940409774277208 -1.646431860083296 0 0 0
11929 1 2 0 89.56515414408646 9.489765763817454 -2.2506564832302898 0 0 0
8333 1 1 0 85.83956937648617 10.925884688813397 -1.642680781984582 0 0 0
11938 1 2 0 93.25264260363717 5.9600527013057 -2.2332844219178174 0 0 0
8343 1 1 0 93.24144921542369 7.521926661717319 -1.6383023695019137 0 0 0
11945 1 2 0 96.3330938978499 7.122313011161113 -2.2145459366458033 0 0 0
8340 1 1 0 91.09083233796444 9.496161743045262 -1.64073467599661 0 0 0
11934 1 2 0 91.79565609507773 8.1078184211845 -2.1642632854536576 0 0 0
11939 1 2 0 94.37438727710057 8.663247745043103 -2.105190016852164 0 0 0
8347 1 1 0 95.98375627109955 8.649890573851971 -1.6351470724809218 0 0 0
11933 1 2 0 92.03485097847201 10.723493693465782 -2.2049507115959095 0 0 0
14827 1 2 0 96.18204125455131 8.679051979860374 -2.0389373382714546e-07 0 0 0
14820 1 2 0 91.01846187991673 9.571673722640337 -3.909335110064107e-09 0 0 0
6546 1 1 0 101.47964330805395 7.959387732500905 -1.6300599360347994 0 0 0
9188 1 2 0 100.46379215397255 6.803101336677119 -2.241609533857516 0 0 0
11944 1 2 0 96.88257169057789 9.976918919416464 -2.1817326778372816 0 0 0
9184 1 2 0 101.42640029597892 9.517970055737905 -2.1911818577940108 0 0 0
6826 1 1 0 10.51999205312516 11.434451463230614 -1.477812029342901 0 0 0
9714 1 2 0 7.0158329088626585 12.623300630373304 -1.3293464273188222 0 0 0
9625 1 2 0 9.389759390013317 12.324511868477826 -2.3243695712838823 0 0 0
9624 1 2 0 11.726992095780941 12.451407430189496 -1.2309327824740157 0 0 0
6880 1 1 0 8.41170616608863 13.411697934433086 -1.5004843038984585 0 0 0
9715 1 2 0 7.897671719356297 14.816559266430648 -2.219512289070654 0 0 0
9628 1 2 0 11.314011581902564 14.874053579069631 -2.244174528206189 0 0 0
6884 1 1 0 7.902794393098699 16.381849130995057 -1.6429045244780534 0 0 0
6883 1 1 0 10.77510469155807 16.3214682493981 -1.6294745594543876 0 0 0
13360 1 2 0 9.085243409182421 13.747936462814971 -1.297553209973199e-07 0 0 0
13363 1 2 0 10.647346306245604 16.173032510688806 -2.504784646365331e-07 0 0 0
9615 1 2 0 13.688895531880107 13.379926201779917 -2.3756760942902253 0 0 0
6821 1 1 0 15.02423418742902 12.762489670202129 -1.6166301329166217 0 0 0
9611 1 2 0 15.712485437588375 11.4374976697528 -2.2563740672040367 0 0 0
6828 1 1 0 12.390507098465841 13.882801656751015 -1.4863837144365264 0 0 0
9614 1 2 0 16.058575738395998 14.004646953474483 -1.9822453470283743 0 0 0
9619 1 2 0 14.129829330753202 16.19179585192945 -2.2861804817197644 0 0 0
6823 1 1 0 15.457968287608217 15.492567900338473 -1.5980999989678326 0 0 0
9618 1 2 0 16.701549690399553 16.437899093415627 -2.0117285775244973 0 0 0
13301 1 2 0 14.769367324071148 12.482722704166447 -5.671179366079916e-07 0 0 0
13308 1 2 0 12.821213121839897 14.502496668304023 -3.080194801283006e-07 0 0 0
13303 1 2 0 15.173863336865587 15.450911715815167 -2.7477156564814426e-08 0 0 0
9612 1 2 0 18.38326963746263 11.814695690104198 -2.1566134350148296 0 0 0
9630 1 2 0 22.868750603795277 11.321204200779004 -2.1897377195826917 0 0 0
6831 1 1 0 22.419179979815354 12.847376024272501 -1.6440011180832133 0 0 0
6822 1 1 0 19.28920800994295 13.14876310462992 -1.6482580331223262 0 0 0
9616 1 2 0 18.83777650160492 14.664253118431711 -2.244454919887552 0 0 0
9617 1 2 0 20.855258472118734 12.99817013233466 -2.1790029048251056 0 0 0
6824 1 1 0 18.291378215324965 16.101802642436347 -1.611826424927217 0 0 0
9633 1 2 0 23.307821516062575 14.198110754797826 -2.1522877778458316 0 0 0
9637 1 2 0 26.654830251986905 11.794584159252695 -2.214037419575687 0 0 0
9639 1 2 0 25.925357049869074 14.498684910662853 -2.151744464569154 0 0 0
6835 1 1 0 26.998770610278186 13.327479012183769 -1.644418300415615 0 0 0
9640 1 2 0 28.48624216937472 13.783821811215445 -2.216334752800731 0 0 0
6836 1 1 0 24.52992645976609 15.26451912574674 -1.6422771452481162 0 0 0
13315 1 2 0 26.988980542294154 13.280920483322287 -5.822926300563813e-09 0 0 0
13316 1 2 0 24.4424655637628 15.36137235624003 -2.7907177445282553e-08 0 0 0
6841 1 1 0 32.17015612028881 11.994030625278038 -1.6455403405881885 0 0 0
9650 1 2 0 33.669261493085436 12.420455042823745 -2.2243420966556187 0 0 0
6842 1 1 0 29.977787008609234 14.224343531659542 -1.6454477487137273 0 0 0
9649 1 2 0 31.08532080906676 13.117851662308857 -2.1996847151313985 0 0 0
9651 1 2 0 30.338205101452697 15.746768144668799 -2.2126769469233323 0 0 0
6848 1 1 0 35.19528077618481 12.692657920376114 -1.6427559220338939 0 0 0
9659 1 2 0 36.191875560579746 11.51432989366297 -2.2056479068527737 0 0 0
9660 1 2 0 38.94711197823407 11.571073874258778 -2.2204293213687722 0 0 0
9661 1 2 0 35.94580980370831 14.040189630327276 -2.225539747720597 0 0 0
9739 1 2 0 34.853931119893524 16.31851939308122 -2.2065412917856553 0 0 0
6895 1 1 0 36.17318097747736 15.556387800062094 -1.6384573558733608 0 0 0
9738 1 2 0 37.48582275586911 16.336235796432366 -2.2508556634249977 0 0 0
9736 1 2 0 40.056253833795736 16.016627944663647 -2.2584359124403397 0 0 0
6854 1 1 0 40.41599163678655 12.089810182906483 -1.6446951041811924 0 0 0
6860 1 1 0 45.687408630534165 11.644319576064309 -1.6450405217168793 0 0 0
9671 1 2 0 40.854944088318334 13.569625909150611 -2.226071515710675 0 0 0
6894 1 1 0 41.22571404112545 15.064133955481083 -1.6427674037235915 0 0 0
9737 1 2 0 42.63681835859153 15.69543275415047 -2.216820485871576 0 0 0
6900 1 1 0 43.90871472970523 16.581719065696653 -1.644380004881165 0 0 0
9744 1 2 0 45.24534657122196 15.806274301465038 -2.214963390886646 0 0 0
13340 1 2 0 45.66819613767636 11.646504216421139 -9.879482829220056e-08 0 0 0
9693 1 2 0 51.28649045131461 12.601509088226877 -2.2137916497304286 0 0 0
6899 1 1 0 46.31691500536375 14.69258710595824 -1.6439252367505524 0 0 0
9681 1 2 0 45.900187683497435 13.190319813974773 -2.2105530063807888 0 0 0
9745 1 2 0 47.7859094902 15.194999431549652 -2.2151025893781355 0 0 0
9700 1 2 0 50.432038077131324 15.104187012345944 -2.2245380196963396 0 0 0
6901 1 1 0 49.1435139619371 15.946307730590703 -1.64411454722769 0 0 0
6871 1 1 0 51.61486277685662 14.119457845742806 -1.6439812001892435 0 0 0
9699 1 2 0 53.05240158286332 14.713025559045523 -2.2144145980819236 0 0 0
9697 1 2 0 56.655767265798126 12.037802048452694 -2.2143211721725597 0 0 0
9701 1 2 0 55.70801126008549 14.495513407528332 -2.224345098068622 0 0 0
6873 1 1 0 56.93514432466949 13.56483870697173 -1.6440783782713255 0 0 0
6872 1 1 0 54.45310591800568 15.38839902204347 -1.644210581434868 0 0 0
13351 1 2 0 51.635821383920536 14.100594081637283 -8.052512607833641e-08 0 0 0
13353 1 2 0 56.957363864206044 13.5537308836623 -5.06203193102541e-07 0 0 0
11873 1 2 0 62.022493561264085 11.462519721154933 -2.211979788212491 0 0 0
9703 1 2 0 58.35776221890193 14.197016532138518 -2.212378511815712 0 0 0
9858 1 2 0 61.00912380742344 13.915465693889272 -2.219973704371298 0 0 0
6973 1 1 0 59.774712175994274 14.843751459048953 -1.6443205430734458 0 0 0
8304 1 1 0 62.25493996209286 13.001946656485982 -1.6442969835222256 0 0 0
9857 1 2 0 60.02271246195888 16.379617976290255 -2.2123076205892587 0 0 0
8308 1 1 0 67.52454420912747 12.354122195087385 -1.6442927471734334 0 0 0
11875 1 2 0 63.66336212263375 13.669324657477103 -2.2084331180252503 0 0 0
8309 1 1 0 65.09904613476365 14.280132548994406 -1.6444358269643944 0 0 0
11881 1 2 0 66.28975222120805 13.289120327282195 -2.215608907592139 0 0 0
11883 1 2 0 65.38417745172374 15.816397346217233 -2.2071929616402644 0 0 0
14788 1 2 0 67.53274131021878 12.334498880951301 -1.713204227737649e-07 0 0 0
14789 1 2 0 65.08763486005539 14.29806329355431 -1.1825054007250524e-07 0 0 0
8315 1 1 0 72.70654431548591 11.513201070795224 -1.6439392285495655 0 0 0
11892 1 2 0 71.51145926888947 12.510915807892617 -2.210032663356249 0 0 0
11882 1 2 0 68.92745370349478 13.022409473292283 -2.2107140121368882 0 0 0
8316 1 1 0 70.38011107642495 13.58138503242072 -1.6446899846758496 0 0 0
11894 1 2 0 70.66174173886759 15.127780995072595 -2.1990102882637044 0 0 0
8356 1 1 0 70.86706308893734 16.687630563235484 -1.6448288624388616 0 0 0
14795 1 2 0 72.68051873288383 11.49118440470045 -2.3366736458940586e-07 0 0 0
14836 1 2 0 70.86485128036249 16.668618090367097 -2.08439004369239e-07 0 0 0
11893 1 2 0 74.11280849872853 12.150555176477003 -2.2157930778211585 0 0 0
8320 1 1 0 75.56534521732331 12.677196799131574 -1.6440045771949643 0 0 0
11899 1 2 0 76.66604708722969 11.570801146734633 -2.2055761790637365 0 0 0
11901 1 2 0 75.79017243195672 14.226868636597729 -2.2080621893000165 0 0 0
8361 1 1 0 76.02423682661917 15.77566077608071 -1.644064547300466 0 0 0
11964 1 2 0 77.49983582899267 16.264043039054055 -2.203122244409403 0 0 0
14800 1 2 0 75.60412040429794 12.707942684078729 -3.553876125854439e-08 0 0 0
14841 1 2 0 75.98053564962284 15.762573413778558 -7.177993950145898e-07 0 0 0
8328 1 1 0 80.65626031639339 11.878396437599497 -1.643556806673399 0 0 0
11915 1 2 0 80.84847065436556 13.415487264590574 -2.218672844600805 0 0 0
8335 1 1 0 81.25209960501246 14.915649747464778 -1.6450717714914793 0 0 0
11926 1 2 0 80.17178653486151 16.045837232763272 -2.206941336240116 0 0 0
11925 1 2 0 82.77521858300405 15.250735250212436 -2.206363050506273 0 0 0
8336 1 1 0 84.23304163972632 15.796482832901932 -1.6438724841929113 0 0 0
14815 1 2 0 81.23604340529128 14.915751774843379 -6.93490112490087e-11 0 0 0
11921 1 2 0 86.1704914872139 12.420340373399306 -2.227477387547758 0 0 0
8334 1 1 0 86.65342998398842 13.880084472119227 -1.6457097231659852 0 0 0
11923 1 2 0 85.5217244367382 14.936214070449687 -2.2207808618698026 0 0 0
11924 1 2 0 88.17870066356512 14.19789932194277 -2.2357698849250593 0 0 0
8342 1 1 0 89.72266858939496 14.130017209109614 -1.6329615086018059 0 0 0
11935 1 2 0 90.52009455186203 12.756816702118403 -2.0942958971436836 0 0 0
11937 1 2 0 90.75238500541435 15.243114040898806 -2.273854880831058 0 0 0
8341 1 1 0 92.04368074365662 12.270145051733019 -1.635619920611588 0 0 0
11946 1 2 0 96.11059485993103 12.513791852079702 -2.205866975281125 0 0 0
11936 1 2 0 93.39664493940768 13.02466908149786 -2.2396430402286405 0 0 0
8349 1 1 0 94.88931578011206 13.480040950790217 -1.6443355947001619 0 0 0
11947 1 2 0 95.24304370232414 15.01804430229999 -2.157563797160169 0 0 0
8371 1 1 0 91.6369102602786 16.469747582555232 -1.6375838739948334 0 0 0
8377 1 1 0 94.69541922584315 16.495957751043363 -1.6433434626937553 0 0 0
11978 1 2 0 93.15959473759864 16.626996721983236 -2.243807975738371 0 0 0
14829 1 2 0 94.86363695828719 13.423717351245342 -3.1554185309097767e-07 0 0 0
14851 1 2 0 91.72735172205033 16.373871589195684 -2.6459559924185438e-08 0 0 0
14857 1 2 0 94.68859440954944 16.580844893743258 -8.879641196013779e-08 0 0 0
8348 1 1 0 97.3377039540909 11.535061662980114 -1.6471804153888336 0 0 0
9213 1 2 0 98.81304092845308 12.232442012242377 -2.1383439207036536 0 0 0
9185 1 2 0 101.586132001344 12.13324656331816 -2.156624520191409 0 0 0
6561 1 1 0 100.24903689131675 13.02753952350201 -1.6476161479892997 0 0 0
9212 1 2 0 100.49384503979879 14.641355776125563 -2.1627331213489565 0 0 0
6562 1 1 0 101.08353277026688 16.155708696087284 -1.6409883599185218 0 0 0
14828 1 2 0 97.37919592773235 11.480763999412277 -3.4347641521349965e-07 0 0 0
9719 1 2 0 9.363678903654021 16.898307642070023 -2.2199969728914035 0 0 0
9720 1 2 0 11.816098895290665 17.46910307568481 -2.113007728761378 0 0 0
9721 1 2 0 6.786871362475032 17.45190425403756 -2.230283649499277 0 0 0
9790 1 2 0 6.899086297341336 20.171210508057005 -2.2237396373422644 0 0 0
6930 1 1 0 7.381264571564399 21.64991332107236 -1.6384195242450816 0 0 0
9792 1 2 0 8.870344611935693 22.148806698179612 -2.1860395807276243 0 0 0
13410 1 2 0 7.430224908890603 21.564214336659102 -1.1259486147464912e-07 0 0 0
6889 1 1 0 13.374072520000668 17.530633326858013 -1.6384276215115317 0 0 0
9729 1 2 0 13.778408861922578 18.96544181652617 -2.283436924675921 0 0 0
9757 1 2 0 16.227969398982435 19.53053071009219 -2.1606423901079093 0 0 0
6908 1 1 0 17.703021463566447 18.90097722657934 -1.6424466463382585 0 0 0
9759 1 2 0 14.009843975251535 21.51302821959082 -2.200641916079039 0 0 0
6909 1 1 0 14.759051668681842 20.117554782370476 -1.6422213287567766 0 0 0
13389 1 2 0 14.81772622278119 20.26348170456185 -1.8837027939814508e-07 0 0 0
9620 1 2 0 18.710283671429483 17.6168420336767 -2.1639278849599997 0 0 0
9758 1 2 0 18.666847714576612 20.06210612668667 -2.2362078303285235 0 0 0
9760 1 2 0 23.202560065181036 19.355171041977417 -2.194429466374301 0 0 0
6912 1 1 0 19.428517727321157 21.357651505631488 -1.6431242179536771 0 0 0
9762 1 2 0 20.948113652617188 21.060103048741517 -2.2274194134478162 0 0 0
6911 1 1 0 22.458726913858555 20.739973357994135 -1.636963745052142 0 0 0
9763 1 2 0 23.271292156209682 22.111936439856866 -2.130391861101574 0 0 0
9641 1 2 0 24.539426647712105 16.906627119988705 -2.1598601249582643 0 0 0
6910 1 1 0 24.575932876961698 18.545605548444286 -1.648673972131607 0 0 0
9761 1 2 0 25.82954287328208 19.574995083568812 -2.156836425152223 0 0 0
6916 1 1 0 26.966143122261744 20.707182535539573 -1.637156925898945 0 0 0
9771 1 2 0 27.038881430275126 22.29605877186719 -2.1923277334062248 0 0 0
9770 1 2 0 28.415523403609487 20.154875575546285 -2.1796230390780913 0 0 0
6915 1 1 0 31.019851820651063 17.15089041392422 -1.6428713974341516 0 0 0
9769 1 2 0 32.54003752357735 17.297833289961805 -2.246523474839946 0 0 0
6918 1 1 0 34.03170099238321 17.608139362481985 -1.650727662539288 0 0 0
9768 1 2 0 30.314696516262895 18.5244864840547 -2.2201385916502923 0 0 0
6917 1 1 0 29.96266164412713 20.03406636807722 -1.6464307433194287 0 0 0
9772 1 2 0 30.876513959255153 21.324917209658466 -2.2247439087110026 0 0 0
6959 1 1 0 32.2505233563156 21.96408630351989 -1.5110970536531856 0 0 0
9813 1 2 0 33.23336763648453 20.647234557472608 -1.4657703960640958 0 0 0
13398 1 2 0 33.959392353307116 17.692309383501787 -2.9725967484007805e-08 0 0 0
9773 1 2 0 34.84888796297679 18.900589486816575 -2.3093842358061885 0 0 0
6896 1 1 0 38.88143420164638 16.965753315037972 -1.6448574603386013 0 0 0
9740 1 2 0 39.257404508499434 18.446827523669814 -2.2460960479026006 0 0 0
6943 1 1 0 34.84434024068268 20.35183323627121 -1.5180127329988293 0 0 0
9812 1 2 0 35.72840187585393 21.59600056992193 -2.1907961444775825 0 0 0
6944 1 1 0 37.28071050332217 21.977686105582507 -1.6387037021658157 0 0 0
9810 1 2 0 38.11123134373177 20.70555190987093 -2.229712684905984 0 0 0
6942 1 1 0 39.44351905604797 19.959800907939535 -1.6411949924145883 0 0 0
13376 1 2 0 38.84337620779414 16.99814788943222 -9.789948804729106e-08 0 0 0
9746 1 2 0 43.902808442924844 18.142587699987182 -2.2129960849497214 0 0 0
6947 1 1 0 44.32841821715603 19.64625406832626 -1.644303606166306 0 0 0
9811 1 2 0 40.74829763195878 20.76410324394479 -2.2336523379365527 0 0 0
6948 1 1 0 42.00416679461576 21.65840298117193 -1.6440867894791862 0 0 0
9818 1 2 0 43.341119474214004 20.852219718065797 -2.1988467944741066 0 0 0
9819 1 2 0 45.82978832060656 20.020118851102655 -2.2156325959339176 0 0 0
13427 1 2 0 44.3094530335118 19.616370927946345 -1.8615976670247856e-07 0 0 0
9747 1 2 0 49.28935700348176 17.490687151374058 -2.2187288079516705 0 0 0
6924 1 1 0 49.62421950404916 19.00479715923898 -1.6442282193575817 0 0 0
9782 1 2 0 51.07473159794342 19.550293921557337 -2.2195233123687346 0 0 0
6949 1 1 0 47.15016283769718 20.82285923352356 -1.643600014652684 0 0 0
9783 1 2 0 48.473738285831736 20.03282133160128 -2.2218693361225283 0 0 0
13404 1 2 0 49.639030274500854 18.986739171343284 -1.9427899645545724e-07 0 0 0
9784 1 2 0 53.73528785292555 19.38791869789582 -2.2242377959106507 0 0 0
6925 1 1 0 52.45769270530206 20.24810015587468 -1.6441434031072035 0 0 0
9785 1 2 0 52.62185669583436 21.786068977194827 -2.2208210346229467 0 0 0
9702 1 2 0 54.6842966332326 16.923040542254185 -2.21598668203543 0 0 0
6926 1 1 0 54.95842152899433 18.45052725024875 -1.6441796277481668 0 0 0
9786 1 2 0 56.38197594455843 19.078718941153795 -2.213045103688161 0 0 0
13405 1 2 0 52.44317005651954 20.256745915170256 -3.4101930170224976e-08 0 0 0
9853 1 2 0 59.04238043995028 18.846990813657072 -2.21912527802087 0 0 0
6970 1 1 0 57.78720112577262 19.749080454754527 -1.6444512869453627 0 0 0
6974 1 1 0 60.275779619431034 17.915041887427833 -1.64432272776023 0 0 0
9859 1 2 0 61.698553537247236 18.551258222659797 -2.209698253522439 0 0 0
9852 1 2 0 58.00098417520729 21.2900172185235 -2.2122224266407042 0 0 0
13450 1 2 0 57.76886871232763 19.756819277919636 -8.603528560076473e-08 0 0 0
8357 1 1 0 65.60519458820168 17.364621543012536 -1.6445260780226536 0 0 0
8366 1 1 0 63.11289018188188 19.20888762734994 -1.6444746886921329 0 0 0
11958 1 2 0 64.35841282493838 18.28660845187055 -2.216320029046531 0 0 0
11957 1 2 0 67.01758401167677 18.03809432041749 -2.1989885489166805 0 0 0
11970 1 2 0 63.324556391042414 20.754310409622946 -2.2070956964318276 0 0 0
8394 1 1 0 63.54440178366804 22.29938402010937 -1.6445140167320909 0 0 0
14837 1 2 0 65.61416814340555 17.348602374821272 -7.567402208043086e-07 0 0 0
14874 1 2 0 63.553113186820234 22.29709785098429 -4.828535881885958e-09 0 0 0
11956 1 2 0 72.28895350267832 17.335590508173137 -2.202037708089621 0 0 0
8358 1 1 0 68.45314318063092 18.667793359419917 -1.6448105982146168 0 0 0
11955 1 2 0 69.65182730197922 17.66758023225448 -2.205471564678669 0 0 0
8362 1 1 0 73.73933794720301 17.922471697457873 -1.645113985745445 0 0 0
11959 1 2 0 68.6940596863432 20.22374988696963 -2.1968962970088413 0 0 0
8385 1 1 0 68.89652544140608 21.78757612881811 -1.644991285676404 0 0 0
11995 1 2 0 72.97443837595557 22.051002480185254 -2.192665117403103 0 0 0
14838 1 2 0 68.45436075885168 18.687873178484566 -3.5680602674143575e-07 0 0 0
14865 1 2 0 68.8954618812609 21.768207620893847 -2.4804379007235173e-07 0 0 0
11963 1 2 0 74.89862692084208 16.865563715902262 -2.201953330044502 0 0 0
8363 1 1 0 78.8937987227049 16.949739039306923 -1.6442109120357913 0 0 0
11965 1 2 0 73.99145585154528 19.484833475777446 -2.1883561684553583 0 0 0
11966 1 2 0 78.92176229074312 18.511297887186625 -2.2059102980306973 0 0 0
8384 1 1 0 74.19377756501572 21.056563888355132 -1.6451343071499411 0 0 0
11996 1 2 0 75.62717455601206 21.69686534301766 -2.196639070969594 0 0 0
8390 1 1 0 77.08812438212752 22.276894518779603 -1.6449407757946846 0 0 0
8389 1 1 0 79.28805998345898 20.031803350313165 -1.6442997667674917 0 0 0
12003 1 2 0 78.2533356241581 21.21305202896879 -2.198682861643453 0 0 0
14843 1 2 0 78.92949821750727 16.958291041985927 -9.004060073028065e-08 0 0 0
14870 1 2 0 77.10421735113619 22.280794935502065 -6.415451986061357e-08 0 0 0
11927 1 2 0 84.45360636217023 17.31362111762978 -2.232193748008421 0 0 0
8372 1 1 0 84.71426564185369 18.82313881207766 -1.6452714657558607 0 0 0
11980 1 2 0 83.46564175681247 19.73040803613882 -2.2235737030005893 0 0 0
12004 1 2 0 80.80873204699566 20.333221618336033 -2.214944230380127 0 0 0
8391 1 1 0 82.29928364195689 20.73632240444799 -1.644470179494755 0 0 0
12006 1 2 0 82.67179776973047 22.212146322427696 -2.2633555822948703 0 0 0
14871 1 2 0 82.2965820404249 20.730657224829145 -4.641972850901774e-08 0 0 0
11979 1 2 0 86.1688140487436 19.337443635327247 -2.245713735017726 0 0 0
11981 1 2 0 88.91362282565163 19.39251157953923 -2.2553692826567464 0 0 0
8374 1 1 0 90.42912194149766 19.20570627383536 -1.6442899026128865 0 0 0
8373 1 1 0 87.53295983697747 20.036636652802397 -1.6374101075716911 0 0 0
11982 1 2 0 87.62864340153766 21.565891350478935 -2.188611575494696 0 0 0
11977 1 2 0 90.74502301634926 17.709716671617816 -2.175391151356517 0 0 0
14854 1 2 0 90.40072477226518 19.40286767357273 -2.0884087348411993e-08 0 0 0
11987 1 2 0 95.64335244793527 17.723047222463407 -2.234864993756138 0 0 0
11983 1 2 0 91.68489296182891 20.05788119284448 -2.3182459430337192 0 0 0
8403 1 1 0 92.54030071092274 21.215995696833605 -1.5172000933019503 0 0 0
12024 1 2 0 93.92999955083917 21.690988856657786 -2.260225217183892 0 0 0
11989 1 2 0 96.21016879529246 20.42914798229086 -2.2060033424085055 0 0 0
8407 1 1 0 95.47468237789514 21.785178112479624 -1.6447620513638388 0 0 0
9214 1 2 0 100.40576300121434 17.604227786403683 -2.1675046904563344 0 0 0
8378 1 1 0 96.62097232178473 18.93147925195789 -1.6422523322951152 0 0 0
11988 1 2 0 98.14932971942103 18.746337357071106 -2.2130434383892217 0 0 0
8379 1 1 0 99.67603123972022 19.02736266768117 -1.6443730375995043 0 0 0
9286 1 2 0 100.1533864312975 20.579613442375138 -2.1391424138820154 0 0 0
6608 1 1 0 101.13311965008887 21.89167484820869 -1.6382247378507029 0 0 0
13088 1 2 0 100.96335395986692 21.95385929672203 -3.70355834887394e-07 0 0 0
6931 1 1 0 9.931754944211914 23.321232600116225 -1.6472197208085584 0 0 0
9794 1 2 0 11.429567781763641 22.85358436004101 -2.2175584061455758 0 0 0
9860 1 2 0 6.81207234994152 25.441940966631677 -2.19207691332413 0 0 0
6976 1 1 0 8.29374775815838 25.962956868591853 -1.6438728065103647 0 0 0
9795 1 2 0 9.448326160644138 24.85331329798927 -2.1505419458401853 0 0 0
9862 1 2 0 8.473242600819788 27.52158672799161 -2.2095113689896064 0 0 0
13411 1 2 0 9.949104560620679 23.34242366156325 -3.032732394273602e-07 0 0 0
13456 1 2 0 8.329044581401948 26.033716764692297 -5.9051544073110066e-08 0 0 0
6932 1 1 0 12.993588160978737 22.720034229629505 -1.6327561524938408 0 0 0
9796 1 2 0 13.668041325785618 24.15330865712718 -2.0918552927409215 0 0 0
9827 1 2 0 16.295158256397233 24.388198787126676 -2.260624303480556 0 0 0
6980 1 1 0 14.926356066180508 25.10561637466859 -1.634407502685797 0 0 0
9868 1 2 0 14.563673473603545 26.61644067983963 -2.218580791239515 0 0 0