LAMMPS data file via write_data, version 2 Aug 2023, timestep = 1580, units = metal

15456 atoms
2 atom types

7.310403833752101 196.82045027096373 xlo xhi
5.505650788734201 171.04460519137945 ylo yhi
-100 100 zlo zhi

Masses

1 28.085
2 15.999

Atoms # full

9575 1 2 0 9.036070368891435 6.573987676647419 -2.3319977382075985 0 0 0
6792 1 1 0 8.386930835829483 7.886370786003375 -1.6410119188886958 0 0 0
9563 1 2 0 9.323603553132546 9.111756645321739 -2.181312717936179 0 0 0
6785 1 1 0 10.852336051282458 9.457113436912998 -1.639566086907199 0 0 0
9561 1 2 0 12.074221621606997 8.535597873644415 -2.2608090021623504 0 0 0
9562 1 2 0 10.982717582305833 10.99001021459513 -2.1923408720744524 0 0 0
13225 1 2 0 10.913014495018706 9.350625802084506 -4.2423301516611413e-07 0 0 0
9565 1 2 0 13.60343216169155 6.243618872051748 -2.1740930253855244 0 0 0
9571 1 2 0 17.27212301888516 7.725862056914314 -2.213169071835219 0 0 0
6786 1 1 0 13.437260315898326 7.8125145602290536 -1.6466221391603248 0 0 0
6789 1 1 0 16.255528120767398 8.892285440914506 -1.6457886460184754 0 0 0
9564 1 2 0 14.748548967449734 8.593591791810024 -2.242709567046792 0 0 0
9568 1 2 0 16.65911726345756 10.369533005968524 -2.2492854602716283 0 0 0
6803 1 1 0 18.55660808962954 6.847258478846614 -1.6433016586704619 0 0 0
9591 1 2 0 19.91771749706119 7.711312897185003 -2.1631402263308264 0 0 0
9599 1 2 0 23.948495713828503 6.765914200198743 -2.213884898618376 0 0 0
6801 1 1 0 20.849599208573515 9.023747519832645 -1.6463050818706533 0 0 0
9592 1 2 0 22.41975285523972 8.895630587740179 -2.1852202346724985 0 0 0
6806 1 1 0 23.88850246480017 8.333029539785937 -1.6455690623452033 0 0 0
9590 1 2 0 20.367727120972674 10.532873154740216 -2.198546198898081 0 0 0
13243 1 2 0 18.63543406186543 6.776815255035096 -8.641064095404215e-07 0 0 0
13241 1 2 0 20.807910546526866 9.01209918185107 -3.964766599539859e-08 0 0 0
6818 1 1 0 28.852833076080007 5.563368100914531 -1.6358864544575662 0 0 0
9617 1 2 0 29.200170859862478 7.066944130077338 -2.2251429288752114 0 0 0
9598 1 2 0 25.16124000513165 9.290719591261064 -2.196509539863236 0 0 0
6809 1 1 0 26.577334597533792 10.01903292383289 -1.642762955150685 0 0 0
9605 1 2 0 27.862023713622236 9.17245525317187 -2.2241407897738092 0 0 0
6817 1 1 0 29.29530906683492 8.614368864911725 -1.6456199509475118 0 0 0
13257 1 2 0 29.341358155806166 8.651822680347065 -1.0776768154610167e-07 0 0 0
9626 1 2 0 32.748891589828325 5.74173020071417 -2.2292834221844533 0 0 0
6822 1 1 0 33.65555339559839 7.011464042299963 -1.6452310278030498 0 0 0
9618 1 2 0 30.620703244702067 9.480674993519395 -2.19184646811029 0 0 0
6823 1 1 0 32.18897347552225 9.740264371306013 -1.6464612640018008 0 0 0
9625 1 2 0 33.0570415677315 8.445206326024554 -2.2024945002341654 0 0 0
9627 1 2 0 35.2052925202972 6.945303753704276 -2.2181820948285513 0 0 0
6827 1 1 0 36.73317511328251 6.671884740178274 -1.6454088325058673 0 0 0
9633 1 2 0 37.81482593674226 7.777317910657271 -2.2491590170247697 0 0 0
6828 1 1 0 38.9949816397474 8.772195843679594 -1.6483864266284414 0 0 0
9635 1 2 0 38.732673524521665 10.314470015459252 -2.184360500249655 0 0 0
9636 1 2 0 40.51020157878498 8.276744899650263 -2.195129232577421 0 0 0
13267 1 2 0 36.746179639321426 6.71281878558542 -6.814479232672656e-07 0 0 0
6838 1 1 0 44.57753791969386 6.316772460398882 -1.6349758367666614 0 0 0
9651 1 2 0 43.061893124933576 5.828660374737621 -2.12559791973293 0 1 0
6836 1 1 0 41.793565442803185 9.044425413021546 -1.473242405064313 0 0 0
9652 1 2 0 45.0987790325444 7.741172432209376 -2.193457449793598 0 0 0
9649 1 2 0 43.179026685859235 9.293266040915208 -2.3390760269253428 0 0 0
6840 1 1 0 44.69009802531908 9.220908467170755 -1.6446674771311123 0 0 0
9656 1 2 0 45.949356173550576 10.069613699896799 -2.2606059314451477 0 0 0
9648 1 2 0 41.350742012499545 10.610369649240411 -1.2480468812124808 0 0 0
13280 1 2 0 44.64849082540588 9.471597804554138 -1.2735241271112746e-06 0 0 0
6847 1 1 0 51.52741667661095 7.73874726778687 -1.6453560424459241 0 0 0
9668 1 2 0 50.81182336097819 6.3816539667841035 -2.254046276106857 0 0 0
9667 1 2 0 50.698751610498334 9.072337567762247 -2.2036486982293035 0 0 0
9672 1 2 0 48.527144610592444 10.878613261281865 -2.2134335052822696 0 0 0
6849 1 1 0 50.070254507147375 10.519162891560836 -1.6454071721175785 0 0 0
6848 1 1 0 54.51172222501616 6.941369113331089 -1.6441823131764912 0 0 0
9666 1 2 0 53.08462468132599 7.585951140213263 -2.196088508060542 0 0 0
6850 1 1 0 56.503247143773905 9.254138720033433 -1.6448386976182774 0 0 0
9669 1 2 0 55.67141425967849 7.954641731424166 -2.2212149367174634 0 0 0
9673 1 2 0 55.755898845727764 10.628719359353743 -2.2081394643551446 0 0 0
13290 1 2 0 56.51811054517268 9.30107923608781 -1.4600423253137837e-06 0 0 0
9685 1 2 0 59.92305007511471 6.962521196746209 -2.218600282065673 0 0 0
6860 1 1 0 60.54071262069511 5.53457766295174 -1.6449597159553737 0 1 0
9674 1 2 0 58.04484284731617 9.014188500786195 -2.2129100150929735 0 0 0
6858 1 1 0 59.503104989586106 8.462705454529067 -1.6453007446522419 0 0 0
9686 1 2 0 60.63786433022559 9.501943445000801 -2.230548680522935 0 0 0
6885 1 1 0 61.65157891450658 10.657723867051583 -1.6448275580313807 0 0 0
13300 1 2 0 60.55279320990584 5.562402164330426 -3.450964847023153e-07 0 1 0
13298 1 2 0 59.481481092007556 8.433349232844153 -9.549879676260227e-08 0 0 0
8255 1 1 0 65.65812170896463 6.962111912313879 -1.6448466481328574 0 0 0
11801 1 2 0 64.61871103158032 5.83217635098631 -2.2325503991632885 0 0 0
11802 1 2 0 67.15232102903273 6.557515223325094 -2.224520912993662 0 0 0
8256 1 1 0 64.65520115762278 9.892054541041523 -1.6450909204417716 0 0 0
11800 1 2 0 65.14681867098325 8.423858639662486 -2.225082440087722 0 0 0
9728 1 2 0 63.1599858467073 10.301804060328726 -2.2235715291449387 0 0 0
11803 1 2 0 65.72479248399235 10.997247273512714 -2.2323891429915688 0 0 0
14695 1 2 0 65.66952629822714 6.987617182075383 -3.5422334850883003e-07 0 0 0
14696 1 2 0 64.63386547852141 9.880976531382563 -1.9970513831431316e-08 0 0 0
8258 1 1 0 68.65491897098835 6.17915822498135 -1.6450545908244116 0 0 0
11805 1 2 0 69.6687111070107 7.336547701665669 -2.229797783367704 0 0 0
8265 1 1 0 73.72338731193271 7.6807375614468505 -1.6457337615843615 0 0 0
11807 1 2 0 70.24574531532267 9.929779147714875 -2.224712172663486 0 0 0
8259 1 1 0 70.72354938064164 8.455949900271106 -1.6447927613905593 0 0 0
11808 1 2 0 72.21507737008811 8.041025257882382 -2.222533892882583 0 0 0
14705 1 2 0 73.7073765398194 7.665112323702741 -2.4040824860846465e-07 0 0 0
14699 1 2 0 70.72634400598659 8.480610875700709 -3.5394602835044327e-07 0 0 0
11817 1 2 0 74.25789997438909 6.220905630210155 -2.224582771694782 0 0 0
8273 1 1 0 79.35699032565876 6.311186280250414 -1.6426554849896013 0 0 0
11830 1 2 0 79.07911307747861 7.8355069208694195 -2.2309833000920993 0 0 0
11818 1 2 0 74.72235713839221 8.858340020727958 -2.227774633057518 0 0 0
8270 1 1 0 75.71043077406961 10.042057140089387 -1.6445320783294484 0 0 0
11826 1 2 0 77.22318039577675 9.751683987500263 -2.2280902076746645 0 0 0
8274 1 1 0 78.71169321036872 9.344210605966195 -1.6460163356945205 0 0 0
11833 1 2 0 79.76853803059308 10.483054389374953 -2.2197950598652905 0 0 0
11832 1 2 0 80.75419967499887 5.680255741508619 -2.223564816813705 0 0 0
8276 1 1 0 82.28574073629954 5.553076051290226 -1.6455417342487533 0 0 0
11835 1 2 0 82.9266873055558 6.9768153771372825 -2.2057471275240452 0 0 0
8277 1 1 0 84.20789398857865 7.861787586318124 -1.6404000347917052 0 0 0
11837 1 2 0 84.23328703252051 9.43281963458525 -2.221044222602034 0 0 0
8278 1 1 0 83.82963325635906 10.958330894381385 -1.6472799443351442 0 0 0
14718 1 2 0 83.8716964872153 10.948127123711537 -7.876710770025346e-07 0 0 0
11838 1 2 0 85.40502495255245 6.809139734802838 -2.117557381181728 0 0 0
8283 1 1 0 86.98096274975 6.867279624132139 -1.6392232205525514 0 0 0
11847 1 2 0 87.28839768980427 8.421638734873014 -2.1523500435855087 0 0 0
8284 1 1 0 88.64461898484225 9.200086378676993 -1.6336182721844859 0 0 0
11850 1 2 0 89.73494225150627 8.050998399454663 -2.1251445951877446 0 0 0
11849 1 2 0 88.70082895353109 10.708230984641817 -2.2888202962542374 0 0 0
11848 1 2 0 87.86971141647442 5.602179432874795 -2.27173521769745 0 1 0
11860 1 2 0 91.9549740936711 6.704136159382348 -2.3166699938210877 0 0 0
8291 1 1 0 93.03395094984197 5.723016761616206 -1.515633696682343 0 0 0
11862 1 2 0 94.38165660245491 6.638255459161592 -1.4675165148474216 0 0 0
8295 1 1 0 96.02240937001693 6.645017391989111 -1.5134345367256616 0 0 0
8292 1 1 0 91.30363922565594 8.071003688101122 -1.6341577900954787 0 0 0
11863 1 2 0 91.68770815694879 9.599863833374766 -2.1431807769862914 0 0 0
11869 1 2 0 94.16608933297466 9.925803024839976 -2.2959364691763198 0 0 0
8296 1 1 0 95.63571248600046 9.555889302530979 -1.652978206755813 0 0 0
11867 1 2 0 96.2897650272198 8.12659914734107 -2.2476757395837916 0 0 0
8297 1 1 0 92.84838972171218 10.658534061513679 -1.6381442947671128 0 0 0
11870 1 2 0 96.39817135635235 10.961014560488813 -2.128484533995301 0 0 0
6451 1 1 0 101.05208698331607 6.729654624625895 -1.6273555629041163 0 0 0
9038 1 2 0 98.5741842745173 9.750487948148836 -2.1619764087435653 0 0 0
9036 1 2 0 100.62542045167628 8.110099383279268 -2.3941501600640542 0 0 0
6452 1 1 0 100.08047025681127 9.437639033353188 -1.625622714823721 0 0 0
9034 1 2 0 100.90954858654715 10.78653853497909 -2.0775898031474496 0 0 0
9037 1 2 0 99.800580449777 5.7256272929692145 -1.9722656202643396 0 1 0
6787 1 1 0 10.108232776024831 12.281200763759857 -1.6462531212155982 0 0 0
9567 1 2 0 8.564848722029637 12.410289587604709 -2.226608204411187 0 0 0
9566 1 2 0 11.05725617446941 13.451218539757248 -2.275938391278083 0 0 0
6791 1 1 0 11.903616681058715 14.702939014470862 -1.6428165889991062 0 0 0
9730 1 2 0 8.037948726297488 16.17938069139762 -2.221546799896981 0 0 0
9574 1 2 0 10.959641051685297 15.971837513113 -2.1634941172566577 0 0 0
13227 1 2 0 10.047239000910372 12.318804048492249 -6.048019179961282e-07 0 0 0
6788 1 1 0 16.902223522620854 11.886312949464317 -1.6440709941860359 0 0 0
9572 1 2 0 13.464367900824737 14.580211109072023 -2.2221219982041935 0 0 0
6790 1 1 0 15.002751265681686 14.269742531079796 -1.6466966802366323 0 0 0
9569 1 2 0 15.685337534526617 12.863656145843192 -2.216267665515229 0 0 0
9573 1 2 0 16.064443599821058 15.426107561128163 -2.189153960996157 0 0 0
9570 1 2 0 18.40362142909075 12.373695455810967 -2.1538327130870623 0 0 0
13228 1 2 0 16.851469101903525 11.856457217946051 -4.635147539489639e-08 0 0 0
6802 1 1 0 19.953427450527023 12.059559379429505 -1.642770613950743 0 0 0
9593 1 2 0 20.845752235316873 13.358619369309812 -2.22046739062012 0 0 0
6810 1 1 0 21.872553385486516 14.543438874778245 -1.6392255362169201 0 0 0
9603 1 2 0 23.36447755562372 14.054834428455358 -2.1655016575201436 0 0 0
9606 1 2 0 21.832741968646364 16.123213981743355 -2.195223535098457 0 0 0
13242 1 2 0 20.077205550787216 12.028840040600068 -4.1979015189064546e-08 0 0 0
9601 1 2 0 27.0504354564543 11.518246854944984 -2.1902117935592065 0 0 0
6808 1 1 0 24.791381792359427 14.676250780090294 -1.643138488067114 0 0 0
9600 1 2 0 25.91900095077713 13.70486158601063 -2.2890272666269653 0 0 0
6807 1 1 0 27.278847394470354 13.065568981752856 -1.6446715575825397 0 0 0
9602 1 2 0 28.528186132432843 14.029067770641376 -2.2081406780136232 0 0 0
9604 1 2 0 25.175096064744178 16.151465664693074 -2.2515499715149656 0 0 0
6814 1 1 0 29.54524661139079 15.230999963354408 -1.6412160347600504 0 0 0
13254 1 2 0 29.373092189585094 15.261487880917466 -7.070129249505543e-08 0 0 0
9628 1 2 0 32.95039727770536 11.123683903233836 -2.221515054860913 0 0 0
6830 1 1 0 33.85564236990294 12.413295416897355 -1.6386848311115039 0 0 0
9640 1 2 0 33.313074030070275 13.866695527910789 -2.1894838572140136 0 0 0
9613 1 2 0 31.026449548777595 14.80975616809602 -2.201711187052816 0 0 0
6871 1 1 0 32.52474369120761 15.196821739597494 -1.6418862906557803 0 0 0
13311 1 2 0 32.53542473037399 15.308825443317707 -1.8226918005801734e-08 0 0 0
6829 1 1 0 39.1579763365091 11.842281892724975 -1.6576990300615813 0 0 0
9638 1 2 0 40.510889482772406 12.650831366173739 -2.2963100335995774 0 0 0
9639 1 2 0 35.428583176087855 12.545022311623738 -2.1700681563523996 0 0 0
9637 1 2 0 37.96652446426327 12.782353149681535 -2.2724974943736385 0 0 0
6831 1 1 0 36.66401262935193 13.544026965213034 -1.646709896961693 0 0 0
9641 1 2 0 36.83630446726659 15.103561980186287 -2.224695566503456 0 0 0
13269 1 2 0 39.16690892496762 11.89044951061247 -2.3170586963002943e-07 0 0 0
13271 1 2 0 36.5871497313292 13.629933629011413 -1.0930385057814873e-07 0 0 0
6837 1 1 0 41.87414817008871 12.162359144351495 -1.4759730508053768 0 0 0
9650 1 2 0 43.37524948311861 12.231448765248242 -2.1906366449591084 0 0 0
9684 1 2 0 46.20334607810979 12.589382315318838 -2.182904810190613 0 0 0
6876 1 1 0 44.70281703890616 13.10403938261076 -1.6415739750723102 0 0 0
9713 1 2 0 44.34226956844571 14.613355670491728 -2.184598451424064 0 0 0
6877 1 1 0 44.7958655461488 16.107248914117744 -1.6405209345050031 0 0 0
13316 1 2 0 44.79902713862981 13.03938776877869 -5.92846044088315e-08 0 0 0
6857 1 1 0 46.98812046682318 11.202151388433219 -1.6464286188289896 0 0 0
9671 1 2 0 51.105327407436796 11.689227546479243 -2.192071413666604 0 0 0
9676 1 2 0 51.495743561951784 14.301979809325942 -2.1874036842290683 0 0 0
9714 1 2 0 46.405870397368965 16.118038211492916 -2.148336360858625 0 0 0
9716 1 2 0 49.364829108267934 16.125407874599706 -2.181608752437665 0 0 0
6878 1 1 0 50.940216123888256 15.784907358094642 -1.6472238602188258 0 0 0
13318 1 2 0 50.898650837928805 15.792688588014734 -5.080585427124732e-07 0 0 0
9675 1 2 0 53.686608601408345 12.513539643036536 -2.1991812939246302 0 0 0
6851 1 1 0 52.14176335745914 12.861353034763086 -1.6441727514980655 0 0 0
6852 1 1 0 55.21335561303613 12.101461589669176 -1.646010165946091 0 0 0
9677 1 2 0 56.32233608050292 13.19391659840501 -2.213097275978709 0 0 0
9725 1 2 0 57.10249837375104 15.722904608540004 -2.21670281014694 0 0 0
13291 1 2 0 52.191109112315964 12.879934831625725 -7.190770583261288e-09 0 0 0
6883 1 1 0 57.48763003361363 14.222098452106549 -1.6448339736312918 0 0 0
9726 1 2 0 61.114224384647855 12.11052980375304 -2.2224055194896666 0 0 0
9724 1 2 0 58.99001636661951 13.802297062157606 -2.2173740124514225 0 0 0
6884 1 1 0 60.52843218225325 13.546012113701805 -1.645480751867745 0 0 0
9727 1 2 0 61.54287685581756 14.718996190075652 -2.2196948673022723 0 0 0
6958 1 1 0 62.67705595771986 15.77574476651379 -1.645309316536465 0 0 0
8261 1 1 0 66.75668094536297 12.137154290470221 -1.6449844922808057 0 0 0
11809 1 2 0 68.26834612023892 11.79437994120209 -2.2225626340633373 0 0 0
11811 1 2 0 66.22727226365072 13.589251151475128 -2.2258453386475363 0 0 0
8302 1 1 0 65.69637428869187 15.041257532333482 -1.6452391028656121 0 0 0
9841 1 2 0 64.17505521308333 15.358126688505736 -2.219804747074358 0 0 0
11875 1 2 0 66.74564972950628 16.172308736310836 -2.229443009147081 0 0 0
14701 1 2 0 66.76320666743591 12.147050706783983 -3.1804238884906857e-07 0 0 0
14742 1 2 0 65.68326933500691 15.045544607776119 -5.599128991574428e-07 0 0 0
8260 1 1 0 69.76957878572567 11.403806093868901 -1.6453133506816127 0 0 0
11810 1 2 0 70.84225881952356 12.513772604144004 -2.228180526557601 0 0 0
8272 1 1 0 71.84412828355221 13.686957171961051 -1.6450503402860135 0 0 0
11827 1 2 0 73.37131803524106 13.435184760004127 -2.2239496000645307 0 0 0
11829 1 2 0 71.29708381621636 15.12861290795025 -2.2290567901889142 0 0 0
14700 1 2 0 69.75109996936932 11.399543290450305 -5.163485654331727e-07 0 0 0
11825 1 2 0 75.20948045494657 11.503913911523178 -2.2259845570404835 0 0 0
8271 1 1 0 74.86119083531392 13.010546099368431 -1.645296447738024 0 0 0
11828 1 2 0 76.00073662378419 14.063491458783824 -2.221152783222637 0 0 0
8307 1 1 0 77.00100353959314 15.251039920265592 -1.6451591466615882 0 0 0
11882 1 2 0 78.54421211165925 15.042734888350337 -2.2112486326784535 0 0 0
14747 1 2 0 76.99835948286172 15.241460746645044 -2.606779763201356e-07 0 0 0
8279 1 1 0 80.80491257980071 11.641703398961202 -1.6440776459530078 0 0 0
11839 1 2 0 82.30682943280111 11.271042253036372 -2.2134801337211565 0 0 0
11840 1 2 0 84.78370475462188 12.21957956946682 -2.195830884679229 0 0 0
8308 1 1 0 80.05878830398973 14.664233113197072 -1.6456932241778859 0 0 0
11841 1 2 0 80.40731717663414 13.146472318330968 -2.2156662379847445 0 0 0
11884 1 2 0 81.18648584500039 15.75588157637649 -2.2070846956192436 0 0 0
8320 1 1 0 85.29200255074636 16.539328492970835 -1.6453776219009613 0 0 0
14719 1 2 0 80.77099088239497 11.648786398084434 -7.359216186470075e-08 0 0 0
14748 1 2 0 80.06355982390585 14.676909359930525 -3.335101692511593e-07 0 0 0
8285 1 1 0 88.65699274531826 12.24112339262452 -1.6469084032811654 0 0 0
8286 1 1 0 85.82116062759358 13.41465936883942 -1.6444294668409845 0 0 0
11851 1 2 0 87.31628056104988 13.006883294726691 -2.2203106004285726 0 0 0
11852 1 2 0 89.96718104036978 13.083700817234323 -2.1938402056614996 0 0 0
11853 1 2 0 85.58580786604527 14.978930644915676 -2.1875722020033534 0 0 0
14725 1 2 0 88.62602670394988 12.20762207742229 -1.0716055963827248e-07 0 0 0
11871 1 2 0 92.50294765997361 12.17234115464339 -2.22226143527345 0 0 0
8310 1 1 0 91.50408731147877 13.37676381639881 -1.645642826459588 0 0 0
11886 1 2 0 91.98363478096493 14.85178109856331 -2.2231807727472983 0 0 0
8324 1 1 0 92.46116631800437 16.3389981753251 -1.6494096111767582 0 0 0
8300 1 1 0 97.94387211803496 11.198042189997452 -1.641716357568205 0 0 0
9156 1 2 0 98.71162639668329 12.469294373723022 -2.3464983753451274 0 0 0
6523 1 1 0 99.40806899478483 13.773725121247166 -1.6021183860068389 0 0 0
9125 1 2 0 100.89957865400824 14.219396998367706 -2.220620571472856 0 0 0
9155 1 2 0 98.23060640485762 14.901085015646807 -1.824487850412154 0 0 0
6524 1 1 0 98.28099897412619 16.529789477385673 -1.5839255124801837 0 0 0
12963 1 2 0 99.65825548061831 13.479568595836223 -6.224775848377216e-08 0 0 0
6886 1 1 0 9.527065239483692 16.660711302956745 -1.6384203504752874 0 0 0
6888 1 1 0 10.969574181023004 19.194662000456923 -1.644365740613614 0 0 0
9729 1 2 0 9.735468683400422 18.223426852054228 -2.1559997566205795 0 0 0
9731 1 2 0 12.42664310994959 18.698905080689105 -2.2393197281331036 0 0 0
9800 1 2 0 8.352380160314437 21.82271155374089 -2.2112534577669085 0 0 0
9733 1 2 0 10.718968287385922 20.69960843531323 -2.2502339704352297 0 0 0
6932 1 1 0 9.892881765319574 21.982416683143857 -1.6457266008025067 0 0 0
13328 1 2 0 11.0268610259939 19.208898992443775 -1.4272682574596562e-07 0 0 0
6864 1 1 0 16.193440845045625 16.974769300600524 -1.6406771899515775 0 0 0
6887 1 1 0 13.936956437162134 18.951594878925683 -1.6439778105360343 0 0 0
9696 1 2 0 14.824378332379126 17.69380145560828 -2.20097903564081 0 0 0
9695 1 2 0 17.524226762185442 17.720566340679227 -2.2624688101388655 0 0 0
9732 1 2 0 14.58677639942791 20.31798428323305 -2.290600721387314 0 0 0
6910 1 1 0 15.247736402333494 21.667811763247297 -1.640991909566712 0 0 0
9765 1 2 0 16.758233197139482 21.919975121005727 -2.2314815176055522 0 0 0
6911 1 1 0 18.26525810629197 21.617594898796405 -1.6426859419241557 0 0 0
13350 1 2 0 15.295370467422025 21.587365432286166 -4.428156282298898e-09 0 0 0
6866 1 1 0 18.75808846061905 18.631133439626417 -1.6463462223572523 0 0 0
9697 1 2 0 20.131254402871757 17.980948807422727 -2.2356597235952727 0 0 0
6865 1 1 0 21.635200933095707 17.69487018061209 -1.6423385452157657 0 0 0
9698 1 2 0 22.515643207110895 19.044574558837734 -2.134884803431497 0 0 0
9699 1 2 0 18.743964168830534 20.16733040522225 -2.243649369921716 0 0 0
6892 1 1 0 23.977777923997582 19.732060806878685 -1.6424169749107154 0 0 0
9612 1 2 0 29.540786344818336 16.801802800998583 -2.205728785056612 0 0 0
6815 1 1 0 25.865293984551275 17.50693295140115 -1.6468605563858325 0 0 0
9615 1 2 0 24.96798873120835 18.656096522312527 -2.354037069566721 0 0 0
9614 1 2 0 27.325651763788013 17.958730416800307 -2.211183144068603 0 0 0
6816 1 1 0 28.845044468582465 18.19355421490946 -1.6400633592987648 0 0 0
9616 1 2 0 29.471843974188523 19.635273384579374 -2.1966240380423407 0 0 0
9738 1 2 0 24.74930160895934 21.14353465601859 -2.149394301470678 0 0 0
6894 1 1 0 26.124212519024407 21.985574675949845 -1.644770862637188 0 0 0
9739 1 2 0 27.68082041614203 21.60426244613956 -2.1665409025253997 0 0 0
6893 1 1 0 29.2393717905789 21.21533672642267 -1.6477077137538452 0 0 0
13333 1 2 0 29.26170734377141 21.23851674125577 -2.577608798336247e-08 0 0 0
13255 1 2 0 25.83382773111253 17.48583211063385 -7.709116481407586e-09 0 0 0
9706 1 2 0 33.17706537438617 16.60258853603463 -2.2489475128502456 0 0 0
6873 1 1 0 34.19561263507855 17.77573019790326 -1.6416973057787052 0 0 0
9709 1 2 0 33.78589694122743 19.28982253944581 -2.1958623261515635 0 0 0
9774 1 2 0 33.21237547474398 21.94574799578277 -2.1962717370053837 0 0 0
6917 1 1 0 34.28629515690281 20.78693536813709 -1.645162942972113 0 0 0
13313 1 2 0 34.10274061403613 17.748653396501712 -5.13791431187342e-07 0 0 0
13357 1 2 0 34.26785260218681 20.823917094139965 -1.0689034902569085e-07 0 0 0
6872 1 1 0 37.06385031927814 16.644693653565444 -1.6380325069145216 0 0 0
9707 1 2 0 35.74541803678414 17.504483115739056 -2.1443234126230237 0 0 0
9708 1 2 0 38.39806999317444 17.484125670657097 -2.19545190632269 0 0 0
6902 1 1 0 39.2938796834114 18.793342501480662 -1.647987901192685 0 0 0
9776 1 2 0 35.85167407701652 21.011383408858013 -2.172922919514561 0 0 0
6945 1 1 0 37.38926446382971 21.395938530878805 -1.6438544746506443 0 0 0
9754 1 2 0 38.530178452168464 20.238130461764044 -2.151429884541102 0 0 0
13342 1 2 0 39.334808902667575 18.84248478975934 -3.703044919205658e-07 0 0 0
13312 1 2 0 37.19154451374197 16.57914242258202 -1.0688550160490239e-06 0 0 0
9715 1 2 0 43.55759608864325 17.114550370942087 -2.1885931240832943 0 0 0
9752 1 2 0 40.8849854725826 18.483334524040288 -2.1678801258315117 0 0 0
6901 1 1 0 42.48878769886388 18.31483007335912 -1.6370540174520307 0 0 0
9753 1 2 0 43.22037349407742 19.70259862235965 -2.1511929829993424 0 0 0
6920 1 1 0 44.33991487044791 20.79641508874256 -1.6403333486884932 0 0 0
9778 1 2 0 45.84829864194586 20.378957068244567 -2.2223077022542164 0 0 0
13341 1 2 0 42.42062674661325 18.141779591278762 -4.187212705187342e-07 0 0 0
13319 1 2 0 47.95647946098187 16.662470077411296 -2.9926233141522125e-07 0 0 0
6879 1 1 0 47.879189849316816 16.748046131401246 -1.642049633508777 0 0 0
6919 1 1 0 47.278494372113386 19.752023647558214 -1.6447300782036067 0 0 0
9718 1 2 0 47.69339298513096 18.273822260857393 -2.237531054969075 0 0 0
6931 1 1 0 49.836234045129366 21.43222672642426 -1.642891338801571 0 0 0
9779 1 2 0 48.55286162912828 20.60261988310519 -2.2311397239467623 0 0 0
9796 1 2 0 51.29321798916586 20.98921639729451 -2.253314030802187 0 0 0
13359 1 2 0 47.20300788402383 19.717967784235682 -1.6222592662185068e-07 0 0 0
9717 1 2 0 52.10035760657054 16.87457826241942 -2.1855564137723404 0 0 0
6906 1 1 0 53.41123489087171 17.760723212564148 -1.6446641564860414 0 0 0
9760 1 2 0 53.29551725190579 19.316094495267276 -2.203853170305036 0 0 0
6930 1 1 0 52.82029558284612 20.794716189379717 -1.6456425500574563 0 0 0
9797 1 2 0 53.80218892007602 22.007509338282375 -2.215414671625569 0 0 0
6907 1 1 0 56.463062007473525 17.136475787999682 -1.6457040527780296 0 0 0
9759 1 2 0 54.89731402673775 17.248488929723287 -2.2050388620194146 0 0 0
9761 1 2 0 57.45789108984392 18.34633561040235 -2.2074278833483807 0 0 0
13347 1 2 0 56.44892312298089 17.162085737318055 -1.2369061664227343e-07 0 0 0
9840 1 2 0 62.277552905142784 17.27242688945306 -2.2223274205028885 0 0 0
6951 1 1 0 58.64869123867838 19.359645096002257 -1.645534806828359 0 0 0
9830 1 2 0 60.14124311107133 18.90519986359802 -2.2117983521419333 0 0 0
6959 1 1 0 61.68635441392321 18.705212092214357 -1.6454014533773103 0 0 0
9829 1 2 0 58.35187708911637 20.882532574756386 -2.2233627240490206 0 0 0
9842 1 2 0 62.65862856321486 19.91796034561544 -2.2186144075340994 0 0 0
13399 1 2 0 61.69216031957537 18.706988348139603 -7.09240460047334e-08 0 0 0
8314 1 1 0 67.82047630276324 17.27754022362053 -1.6450168322098657 0 0 0
11892 1 2 0 67.34340281655565 18.7416258272049 -2.230257926728889 0 0 0
8333 1 1 0 63.82045507803875 20.948407745941957 -1.6453198469998405 0 0 0
11918 1 2 0 65.28935171760308 20.463870806616885 -2.227250204145975 0 0 0
8332 1 1 0 66.80797830210196 20.18477338618858 -1.6448407363253452 0 0 0
11919 1 2 0 67.81985155525514 21.33936907873338 -2.2377751003943307 0 0 0
14773 1 2 0 63.824487563654934 20.942937854591115 -2.0199501171680226e-07 0 0 0
11890 1 2 0 69.33165796820661 16.946606723026207 -2.227741636437899 0 0 0
8313 1 1 0 70.83977176125568 16.60095447920685 -1.6450784938484446 0 0 0
11891 1 2 0 71.92199344193513 17.70211362677798 -2.227087668668266 0 0 0
8319 1 1 0 72.96646214848325 18.839515089664005 -1.6452729643501316 0 0 0
11899 1 2 0 72.45032692591978 20.292774244238352 -2.231344391069167 0 0 0
8345 1 1 0 71.90163389897239 21.732271658702086 -1.644918880456649 0 0 0
11936 1 2 0 70.39067623680369 22.02801453493465 -2.2339503969157306 0 0 0
14753 1 2 0 70.82890188550434 16.611855719171746 -4.7824578954049986e-08 0 0 0
14759 1 2 0 72.97449233495747 18.83799696639544 -6.58896224682525e-08 0 0 0
11883 1 2 0 76.42700596396777 16.686950398264916 -2.2246036917143943 0 0 0
11897 1 2 0 74.48775214165518 18.54092506894059 -2.2229152098575193 0 0 0
8318 1 1 0 75.99434496220523 18.170004202658827 -1.6451818595368208 0 0 0
11898 1 2 0 77.09963398145219 19.25217372771061 -2.225765958031849 0 0 0
8337 1 1 0 78.11951372763379 20.414953599611213 -1.644989016876333 0 0 0
11927 1 2 0 77.5828470900207 21.856242704607254 -2.2346830928044157 0 0 0
11926 1 2 0 79.65088392069292 20.188422124731268 -2.2223042020928636 0 0 0
14777 1 2 0 78.12157001743536 20.400163074669866 -9.67642672266135e-08 0 0 0
8321 1 1 0 82.18279033165156 16.97103937816322 -1.6450628784428423 0 0 0
11900 1 2 0 83.74711093630565 16.84703033361788 -2.190781779107396 0 0 0
11902 1 2 0 81.62128227923296 18.41616308248622 -2.2240696552347674 0 0 0
8338 1 1 0 81.17573969303824 19.898365770379606 -1.6452591887498227 0 0 0
11928 1 2 0 82.23278008345926 21.045277994283083 -2.2093035426432017 0 0 0
14760 1 2 0 85.33293312801881 16.55328941160028 -1.210955484149535e-07 0 0 0
14778 1 2 0 81.17513865241669 19.905222620433562 -2.4453006094607575e-07 0 0 0
14761 1 2 0 82.15887727362393 16.944636771597317 -1.3104428314489762e-06 0 0 0
11901 1 2 0 86.3735161600428 17.732620252123997 -2.1706625349694337 0 0 0
8326 1 1 0 87.37906122321432 18.997849199799603 -1.646958996438374 0 0 0
11908 1 2 0 88.96402876695485 18.815316016840764 -2.1844524609049505 0 0 0
8325 1 1 0 90.55818926820317 18.84568077437783 -1.6447269418446717 0 0 0
11910 1 2 0 86.85568112332902 20.51015615597117 -2.1709819909885137 0 0 0
8351 1 1 0 86.28953470381585 22.003121454316254 -1.6454338264961688 0 0 0
11907 1 2 0 94.01161445249758 16.5854839767567 -2.2290110747173952 0 0 0
11906 1 2 0 91.36947233072594 17.48652859345444 -2.1802849370912436 0 0 0
8327 1 1 0 95.34029982683208 17.383399564540902 -1.6084523955436612 0 0 0
11911 1 2 0 95.0147425288752 18.960965348206404 -1.9181716082675195 0 0 0
8341 1 1 0 92.41250324392615 21.41319291728708 -1.6487809226869348 0 0 0
11909 1 2 0 91.41876647443715 20.173563671391886 -2.1872715936584908 0 0 0
11932 1 2 0 94.00661278252662 21.31074990272141 -2.196115202538164 0 0 0
8342 1 1 0 95.38779589947542 20.5341567410505 -1.6063457372486643 0 0 0
14767 1 2 0 95.40126139093144 17.028585933820704 -2.2070003504841363e-07 0 0 0
9157 1 2 0 96.84232029648905 17.04176363842182 -2.2655064756096084 0 0 0
9153 1 2 0 99.75431128135295 16.94107704254808 -2.2504685285963597 0 0 0
6522 1 1 0 101.22358428387294 17.462054288037265 -1.6326535994940445 0 0 0
9154 1 2 0 101.13162779862107 18.988774645798028 -2.1718584296151957 0 0 0
9200 1 2 0 96.93614933036164 20.76657449253078 -2.240273053457362 0 0 0
6551 1 1 0 98.38806591317693 21.277731550782708 -1.5234854457082305 0 0 0
6527 1 1 0 101.42035137227039 20.48254135031224 -1.6277791046450436 0 0 0
9162 1 2 0 99.94462884956972 21.138573338280924 -2.1669830101131486 0 0 0
12962 1 2 0 101.21335804440261 17.194184243834698 -2.337414758525036e-07 0 0 0
12991 1 2 0 98.4231452744072 20.601481540535104 -1.7199288555759954e-07 0 0 0
9799 1 2 0 10.65484729349731 23.31405142432774 -2.24555572387502 0 0 0
9875 1 2 0 7.749741050127071 26.459407422637934 -2.209595496162471 0 0 0
6934 1 1 0 11.279103813101507 24.719638635165158 -1.6457597391605239 0 0 0
9803 1 2 0 10.371030796014496 25.956777146214662 -2.2274331295896066 0 0 0
9801 1 2 0 12.806327626386675 25.007160455714335 -2.216643488469904 0 0 0
6981 1 1 0 9.228405936207652 26.99343537954879 -1.6454344095141011 0 0 0
13374 1 2 0 11.261518745103169 24.675161786901803 -4.889483701670218e-07 0 0 0
6933 1 1 0 14.251850280719255 24.45447786016267 -1.641539307313918 0 0 0
9766 1 2 0 14.30874997283923 22.898583736050593 -2.1788811022265437 0 0 0
9802 1 2 0 15.541847318300132 25.279648639090272 -2.2505793923798922 0 0 0
6965 1 1 0 16.885996315562274 26.041626890387178 -1.6458072374962573 0 0 0
9810 1 2 0 18.293736995703995 25.351505581706512 -2.1986591744990522 0 0 0
13405 1 2 0 16.873139452124985 26.01264146324492 -2.2885180937932937e-08 0 0 0
9767 1 2 0 19.241606645613704 22.80593034722755 -2.218436970614097 0 0 0
6938 1 1 0 19.499862889114723 24.337744490184814 -1.6475564676484367 0 0 0
9809 1 2 0 21.019162477572355 24.6499783110096 -2.232090542720732 0 0 0
6939 1 1 0 22.291030779779067 25.532630551652574 -1.6355305982238226 0 0 0
9807 1 2 0 23.790454105850852 25.149993129949582 -2.235416406765689 0 0 0
9811 1 2 0 21.918067209323407 27.038106220835484 -2.151215585586486 0 0 0
13378 1 2 0 19.489974797694153 24.39486244175255 -8.158029745034385e-08 0 0 0
9741 1 2 0 25.87219075646447 23.51278874505486 -2.2241856035653984 0 0 0
6937 1 1 0 25.341906869132057 24.961435835676586 -1.6467176317772225 0 0 0