LAMMPS data file via write_data, version 2 Aug 2023, timestep = 1012, units = metal

15576 atoms
2 atom types

6.461735485756429 198.85440661806362 xlo xhi
5.4484251909790435 171.34943980478133 ylo yhi
-100 100 zlo zhi

Masses

1 28.085
2 15.999

Atoms # full

9608 1 2 0 10.404963066775574 6.448544002140058 -2.102887326099507 0 0 0
6815 1 1 0 11.25176399340886 7.833675197904019 -1.6406061659418363 0 0 0
9612 1 2 0 7.69059431850599 9.608608389844944 -2.2842479639061986 0 0 0
6817 1 1 0 9.161409566126581 9.95564259676347 -1.6530436579005092 0 0 0
9607 1 2 0 10.226197789769865 8.918972828949663 -2.2902188168870397 0 0 0
13307 1 2 0 9.125925262403893 9.923287414737741 -3.9182692981261134e-07 0 0 0
9620 1 2 0 14.854144493684485 5.946691955535644 -2.2118910555263755 0 0 0
6822 1 1 0 15.980635122585353 6.98741368617391 -1.6223512296418636 0 0 0
9621 1 2 0 17.49119731462659 6.879450257668689 -2.293997753708242 0 0 0
9604 1 2 0 12.746501179062202 8.46752194982303 -2.1674623931388957 0 0 0
6814 1 1 0 14.081081904377577 9.353149654791153 -1.6096719909176866 0 0 0
9606 1 2 0 15.417499257341435 8.47073233883223 -1.9908874978814746 0 0 0
9605 1 2 0 14.697923897616212 10.844961675949328 -2.166258213301613 0 0 0
13312 1 2 0 16.102987556482358 6.747479872702406 -5.54477991964603e-08 0 0 0
13304 1 2 0 13.7800551416505 9.556311682831252 -1.6980263233654754e-07 0 0 0
6831 1 1 0 18.859925057806617 7.504463819560806 -1.6137713370211515 0 0 0
9635 1 2 0 20.19000858467354 6.79752046264126 -2.263711383293011 0 0 0
6839 1 1 0 21.711909938836243 6.949464724109521 -1.6475286309220876 0 0 0
9649 1 2 0 22.45850702413271 5.646331979721099 -2.2533074518990452 0 0 0
9633 1 2 0 19.118986144251867 9.074538930459068 -1.9408259874409812 0 0 0
9638 1 2 0 22.635891620213737 8.155953434035952 -2.2425017036678043 0 0 0
6830 1 1 0 18.980963165503262 10.657819630495272 -1.6012318122808133 0 0 0
9637 1 2 0 23.11778854172386 10.635730868319778 -2.1933509657909025 0 0 0
13329 1 2 0 21.677872761273687 7.024505934001428 -2.6959425276702125e-07 0 0 0
9640 1 2 0 27.197003773533098 7.038884461825196 -2.188594061239229 0 0 0
6840 1 1 0 27.594502119672146 5.514611997140013 -1.6481681014139322 0 1 0
6832 1 1 0 23.737220985671733 9.214689226401456 -1.6420006064114112 0 0 0
9636 1 2 0 25.25037021835928 8.917820058138496 -2.232289498888032 0 0 0
6833 1 1 0 26.760883464028776 8.55214046563244 -1.6469785180215084 0 0 0
9639 1 2 0 27.77577342735438 9.739213319684913 -2.2059764881580683 0 0 0
13322 1 2 0 23.83606637003416 9.16994538370132 -1.2110720601656366e-07 0 0 0
13323 1 2 0 26.791042252336602 8.548457121031493 -2.7557472048188217e-07 0 0 0
13330 1 2 0 27.572085299056674 5.518604569081388 -2.0192598526232134e-07 0 1 0
9660 1 2 0 31.621487351307014 5.9251963080271635 -2.1890390245597073 0 0 0
6846 1 1 0 32.569156067224476 7.179751445195489 -1.645558848859075 0 0 0
9661 1 2 0 34.10109867755902 6.907539578352287 -2.204545726466176 0 0 0
9658 1 2 0 32.08279555715553 8.671423442557595 -2.208184975885214 0 0 0
6845 1 1 0 31.751744760280715 10.205209285144127 -1.6444723837145963 0 0 0
9643 1 2 0 30.261372004010823 10.681301976575568 -2.1849143331700596 0 0 0
6855 1 1 0 35.59554113697157 6.478894005002108 -1.6454489119414677 0 0 0
9666 1 2 0 36.68290498613824 7.604181315230227 -2.1989040347905977 0 0 0
6849 1 1 0 37.774007629016445 8.729548280517436 -1.6458040889565744 0 0 0
9664 1 2 0 39.274053895329864 8.257166029198634 -2.1873472119846555 0 0 0
9665 1 2 0 37.38653184910783 10.25655716768458 -2.200678695563879 0 0 0
13339 1 2 0 37.755640278009786 8.754110042696217 -1.5367064042393045e-07 0 0 0
9668 1 2 0 41.28621207150518 6.358885427238998 -2.2001801134130945 0 0 0
6850 1 1 0 40.7921535788238 7.849454452922516 -1.6456548355908391 0 0 0
9667 1 2 0 41.84304120522296 8.996570880122809 -2.2089634047045834 0 0 0
6852 1 1 0 42.98714418760034 10.056372699583118 -1.646429830479912 0 0 0
9672 1 2 0 44.466229488563656 9.458466854698058 -2.174003383947767 0 0 0
6860 1 1 0 45.96841971153238 8.916029312046868 -1.645711220491118 0 0 0
13340 1 2 0 40.79183319157304 7.82854978058068 -5.324812949478432e-08 0 0 0
13350 1 2 0 45.921400050619305 8.898207048069299 -5.2700642107871454e-08 0 0 0
6861 1 1 0 47.048847409052065 5.904925314450248 -1.645356866365286 0 0 0
9683 1 2 0 46.53465330145169 7.421683723403238 -2.159955193870411 0 0 0
9700 1 2 0 51.15209961762919 5.876981487805474 -2.1436927046253773 0 0 0
9684 1 2 0 47.06725543843531 10.003590531509813 -2.2246990505499418 0 0 0
9699 1 2 0 51.457776570218364 8.63048002858387 -2.1846640454548596 0 0 0
6871 1 1 0 51.096145366936305 10.1770094552474 -1.6465645680567869 0 0 0
9704 1 2 0 49.61832555957085 10.761672192768463 -2.175442203748553 0 0 0
13351 1 2 0 47.09807375951064 5.9298346377258655 -2.760966143080016e-07 0 0 0
6869 1 1 0 52.085193856573895 7.169901558152421 -1.645264182096456 0 0 0
9698 1 2 0 53.649954290677165 6.951263952421526 -2.2016109058708295 0 0 0
6870 1 1 0 55.174775129068024 6.563009506840535 -1.6449947856450218 0 0 0
9701 1 2 0 56.324241137847885 7.640074838913602 -2.171252877330793 0 0 0
9705 1 2 0 56.93411257162591 10.211925162851234 -2.2111297929585723 0 0 0
13359 1 2 0 52.11774964210067 7.2138305295588845 -3.0443997802388645e-07 0 0 0
9718 1 2 0 60.98604363276553 6.496159548276902 -2.189389207135298 0 0 0
6872 1 1 0 57.448440675305555 8.7413712189476 -1.644635329232006 0 0 0
9706 1 2 0 58.98596988201885 8.385431932425403 -2.201896255580744 0 0 0
6881 1 1 0 60.512066123671964 7.991962505365185 -1.646763904095785 0 0 0
9719 1 2 0 61.658474486997804 9.058203592269116 -2.2132918345949832 0 0 0
6907 1 1 0 63.023956989474044 9.80762904953043 -1.6443193272998147 0 0 0
13362 1 2 0 57.50113633998424 8.768515822620614 -1.2507965149806144e-07 0 0 0
11889 1 2 0 66.43684790138364 7.339366258834071 -2.236531600925878 0 0 0
8313 1 1 0 66.72958411614108 5.836617334496644 -1.6446216796782274 0 0 0
8314 1 1 0 65.95375975871475 8.794351533788168 -1.6462980823204345 0 0 0
9760 1 2 0 64.4234524567655 9.109839664740127 -2.198861555184375 0 0 0
11892 1 2 0 67.08575025428948 9.83990011447255 -2.2313600074568103 0 0 0
8321 1 1 0 68.17604021205563 10.93075416067555 -1.6438571323757631 0 0 0
14803 1 2 0 66.74636311471542 5.866157870668071 -1.614081242115395e-07 0 0 0
14811 1 2 0 68.21264169621672 10.831691535884726 -3.777505245092351e-08 0 0 0
11897 1 2 0 70.79517079258538 5.819133110370385 -2.285411314358233 0 0 0
8319 1 1 0 71.58623882653866 7.092648946466639 -1.6123891166420363 0 0 0
11900 1 2 0 73.11370790462975 7.364250084357444 -2.20109546874657 0 0 0
11899 1 2 0 70.62729933699282 8.389222376554269 -1.9174094967378996 0 0 0
8320 1 1 0 71.0078176364734 9.961539705967354 -1.603175150804722 0 0 0
11901 1 2 0 69.7187785872269 10.78507609244821 -2.2484175771466 0 0 0
11902 1 2 0 72.52764104167566 10.145784728979821 -2.23260952022306 0 0 0
8331 1 1 0 74.01087624231327 10.629649834965845 -1.6456580928834166 0 0 0
14810 1 2 0 71.08116501748833 10.3430603114559 -2.5695986491669334e-07 0 0 0
8326 1 1 0 74.54659198589391 6.734944658132121 -1.6427382100525492 0 0 0
11912 1 2 0 75.92447481180278 7.457618590018422 -2.189974710888206 0 0 0
11917 1 2 0 75.4432915535793 9.968482747298163 -2.1801277865630335 0 0 0
8330 1 1 0 76.59266862584624 8.874145526141747 -1.6428234910757797 0 0 0
11918 1 2 0 78.17470659443572 8.989904910536287 -2.1962007948307445 0 0 0
8333 1 1 0 79.76736194559508 8.801320565255136 -1.6494761694442908 0 0 0
14823 1 2 0 79.72057172276827 8.798073555525347 -2.1682126324447375e-07 0 0 0
11920 1 2 0 80.37579068150252 7.327144813636938 -2.184677309793062 0 0 0
8332 1 1 0 81.40799351978963 6.130511563691434 -1.6464354125179705 0 0 0
11922 1 2 0 82.9143299262731 6.3655467495524 -2.2738938604098267 0 0 0
8337 1 1 0 84.39746348250293 6.609605435535553 -1.631970892685476 0 0 0
11930 1 2 0 85.502133179091 5.551851480232383 -2.2475108056743283 0 0 0
11923 1 2 0 80.80450067227626 10.023433673139458 -2.1611429735659735 0 0 0
11929 1 2 0 84.70493384221437 8.15763125213808 -2.0786404210896197 0 0 0
11931 1 2 0 85.42989049524269 10.713567061502218 -2.277354421141768 0 0 0
14822 1 2 0 81.38416772418813 6.181171078484513 -4.1668820930531453e-07 0 0 0
14827 1 2 0 84.36530953001878 6.417461601024616 -2.5435328241038894e-07 0 0 0
8352 1 1 0 89.60638624689618 6.042205276327828 -1.6339326432724846 0 0 0
11947 1 2 0 89.71369453053501 7.604501469260773 -2.125085585757615 0 0 0
8338 1 1 0 85.81999427145719 9.263660098681829 -1.6339532089824678 0 0 0
11932 1 2 0 87.24414657923585 8.748978664541676 -2.2765090222578266 0 0 0
8347 1 1 0 88.75006269123476 8.841336649439056 -1.6455767506205154 0 0 0
11946 1 2 0 89.44336052708141 10.201934867145654 -2.259751485190507 0 0 0
8348 1 1 0 90.86333539014896 10.687161360553507 -1.5996801244053551 0 0 0
11937 1 2 0 88.1888404384987 5.519319879790284 -2.2551717245862863 0 1 0
8353 1 1 0 94.60812643660647 6.958818511427985 -1.6492927153177757 0 0 0
11957 1 2 0 93.45432223306902 5.966197996890011 -2.24278067705693 0 0 0
11958 1 2 0 96.05997001403455 6.546850104432274 -2.2531897815283175 0 0 0
11949 1 2 0 91.98492635163502 9.507930483000612 -1.8468361683569494 0 0 0
8354 1 1 0 93.59960091085323 9.685900323896009 -1.6015140351934876 0 0 0
11956 1 2 0 94.33430700072206 8.426220487724732 -2.317128894596938 0 0 0
14844 1 2 0 93.96242784063097 9.729015239760097 -7.900207786226306e-08 0 0 0
8357 1 1 0 97.48311696527485 6.0228296752961406 -1.6431719170757666 0 0 0
9100 1 2 0 98.60057335616581 7.0925181005916045 -2.218606253962816 0 0 0
6495 1 1 0 102.30304786652586 6.144310639200517 -1.6437189468824633 0 0 0
9096 1 2 0 101.17508913478743 7.1364910362868 -2.272032774502141 0 0 0
6497 1 1 0 99.89689540616949 7.952152636657454 -1.6475505157209325 0 0 0
9098 1 2 0 100.04425389080542 9.502176263090888 -2.2117822387962183 0 0 0
14847 1 2 0 97.53363115423443 6.039010596465996 -3.0619827497991014e-07 0 0 0
9609 1 2 0 9.704532315433026 11.343644820968164 -2.3249006735581834 0 0 0
6826 1 1 0 7.241024428285975 13.955461009847683 -1.6254653530337788 0 0 0
9611 1 2 0 8.777758881016041 13.74577168672952 -2.0848394125139498 0 0 0
6816 1 1 0 9.99459440175754 12.775483045088531 -1.6240811627397163 0 0 0
9610 1 2 0 11.36029217854468 13.476104270216606 -2.1923446655792422 0 0 0
9628 1 2 0 6.907500180341658 15.378521188674469 -2.3002093697648616 0 0 0
9618 1 2 0 10.520080694231313 16.00177393531238 -2.1843849111581095 0 0 0
6820 1 1 0 11.709836763492678 14.994544292142898 -1.645603634372212 0 0 0
6818 1 1 0 16.091450770030814 11.652937514130095 -1.6504832409189445 0 0 0
9614 1 2 0 17.520682686310305 11.051168497450927 -2.259683460810969 0 0 0
6819 1 1 0 16.904834753871516 14.65822159724406 -1.6407601274252182 0 0 0
9613 1 2 0 16.221790592263357 13.233926573270821 -2.1662948432864586 0 0 0
9617 1 2 0 13.194044746072494 15.308100267571351 -2.2644738834186087 0 0 0
6821 1 1 0 14.37956490810007 16.265707305680387 -1.641310615907285 0 0 0
9615 1 2 0 15.84929640871416 15.79895376893626 -2.200244482838388 0 0 0
13309 1 2 0 17.018075802178387 14.572319786980552 -2.4985581568237884e-08 0 0 0
9634 1 2 0 20.354900342887465 11.33621100929403 -2.239848146221171 0 0 0
6834 1 1 0 21.88891667040284 11.595075202977153 -1.6475405731262351 0 0 0
9641 1 2 0 22.384500586204943 13.036709846448582 -2.234183160152595 0 0 0
6836 1 1 0 22.43631627578562 14.557665099915777 -1.6428363686372471 0 0 0
9616 1 2 0 18.394398209746743 15.176013794154615 -2.202553065332027 0 0 0
6884 1 1 0 19.722171662564364 16.027810508620114 -1.6453670168627987 0 0 0
9645 1 2 0 21.076146376314664 15.280921352856778 -2.2068073569631594 0 0 0
6835 1 1 0 28.725689448013036 10.980174940285385 -1.645268011386856 0 0 0
9642 1 2 0 28.19716385871582 12.454517433443955 -2.2149230086378275 0 0 0
6838 1 1 0 27.88698885004354 13.987030768922017 -1.6452445976412564 0 0 0
9646 1 2 0 26.427388906229307 14.55074038771345 -2.202650510151288 0 0 0
9644 1 2 0 23.811758783992186 15.23454005004487 -2.2455361790807884 0 0 0
6837 1 1 0 25.29670548523093 15.630533386617158 -1.6445008748010757 0 0 0
9648 1 2 0 29.048218448826805 15.027761741750123 -2.191958565622719 0 0 0
13325 1 2 0 28.69275351160428 11.01221801642753 -5.967424669779106e-07 0 0 0
13328 1 2 0 27.87951529020751 13.948365413120763 -7.774602270973095e-08 0 0 0
13327 1 2 0 25.2925496691216 15.59315215525704 -7.590665657183641e-07 0 0 0
9659 1 2 0 32.83158422692664 11.339184037057763 -2.1971949038474867 0 0 0
6859 1 1 0 33.870085485473524 12.513608811881376 -1.6464172200460823 0 0 0
9682 1 2 0 33.44408636512995 14.030636566918671 -2.1941547131751085 0 0 0
6891 1 1 0 29.997153902623737 16.26308665729792 -1.6442382512766978 0 0 0
9732 1 2 0 31.51656241833961 15.964531649986613 -2.2292779608902564 0 0 0
6890 1 1 0 33.009891636434105 15.544535210424968 -1.6454215022263308 0 0 0
9670 1 2 0 35.37409423128007 12.106427097191535 -2.2124370748000777 0 0 0
6851 1 1 0 36.89171422700732 11.752562092097149 -1.6449410701135805 0 0 0
9669 1 2 0 37.87428196327051 12.982456331085428 -2.169463598039418 0 0 0
6853 1 1 0 38.97166164376122 14.116211019736893 -1.6447392482368874 0 0 0
9674 1 2 0 38.54931843414643 15.657334890267336 -2.185349971780057 0 0 0
13343 1 2 0 38.99847055238503 14.184657754399039 -1.169341178322284e-07 0 0 0
9671 1 2 0 42.529781263571635 11.591413437253351 -2.1689183640758682 0 0 0
9673 1 2 0 40.44308596364809 13.537157757290863 -2.1853913102251945 0 0 0
6854 1 1 0 41.959514525243236 13.086361442810432 -1.6463440033969916 0 0 0
9675 1 2 0 42.940008609798326 14.295157262420934 -2.209802276949148 0 0 0
9743 1 2 0 45.504094224811666 14.761306715429733 -2.1812494391033574 0 0 0
6898 1 1 0 44.0474199928026 15.38931912246148 -1.645669810352061 0 0 0
13344 1 2 0 41.948845954446995 13.050985142293216 -4.745503464692275e-07 0 0 0
6879 1 1 0 48.08176933370786 11.169052559093192 -1.6460779605326485 0 0 0
6897 1 1 0 46.95073524730108 14.125141110398873 -1.6444941593448705 0 0 0
9716 1 2 0 47.44673642402381 12.620569394569948 -2.1812377197522252 0 0 0
6902 1 1 0 49.260912154005055 16.127372666324735 -1.6457635705756466 0 0 0
9744 1 2 0 48.07188551117021 15.169745774518857 -2.2360778520662805 0 0 0
9749 1 2 0 50.66962221648591 15.483093394287765 -2.204988422752095 0 0 0
13369 1 2 0 48.10376800550139 11.188063136561428 -9.158600268655478e-08 0 0 0
13387 1 2 0 46.90838827884339 14.078240371776312 -1.0796995261601455e-08 0 0 0
9703 1 2 0 52.27673612393153 11.210435257160444 -2.1991953638915964 0 0 0
6873 1 1 0 53.33208867468557 12.365700637686306 -1.64619903031155 0 0 0
9708 1 2 0 52.84550372501804 13.85279635156813 -2.2140446230961826 0 0 0
6901 1 1 0 52.20537163652417 15.27208228561776 -1.644416330320652 0 0 0
6874 1 1 0 56.40698744232901 11.676765399230169 -1.6471683861127075 0 0 0
9707 1 2 0 54.86986846755343 12.025863676975606 -2.186456482191057 0 0 0
13363 1 2 0 53.323233827477445 12.380666803821494 -1.8878398569733631e-07 0 0 0
13364 1 2 0 56.39720644396875 11.69143778496666 -8.544984102042468e-08 0 0 0
6905 1 1 0 58.28473883857121 14.103622222093776 -1.6414109047935008 0 0 0
9709 1 2 0 57.511322185417995 12.769664228212577 -2.2284290991587046 0 0 0
9755 1 2 0 59.828292187544406 14.274556508529763 -2.2125089333580283 0 0 0
6906 1 1 0 61.25595885535302 14.899232588414398 -1.6482629472046297 0 0 0
9757 1 2 0 62.463958406586535 13.948727943508436 -2.2335043277766933 0 0 0
9756 1 2 0 57.40674022745581 15.37635457242696 -2.1889536320218363 0 0 0
9758 1 2 0 61.549697029863985 16.418886419726974 -2.235200193700513 0 0 0
9759 1 2 0 63.005850542463314 11.362695070803854 -2.195814604598105 0 0 0
11903 1 2 0 67.6371787003517 12.38728366553942 -2.1655262142697143 0 0 0
6908 1 1 0 63.51576596633126 12.830633699638302 -1.6460375943992729 0 0 0
9761 1 2 0 65.01616568839319 13.172053862660642 -2.247892235409188 0 0 0
8363 1 1 0 66.51898431028948 13.469921059676368 -1.640367885551931 0 0 0
11968 1 2 0 67.07019542159883 14.902020224926558 -2.2156758671457846 0 0 0
8376 1 1 0 68.27457854565056 15.873923603243378 -1.6469237647108772 0 0 0
14853 1 2 0 66.43139504128838 13.491047127877533 -5.042342372815559e-08 0 0 0
14866 1 2 0 68.35447628010216 15.924323888945448 -1.8341957301915536e-07 0 0 0
11919 1 2 0 74.03461253128192 12.139933541230631 -2.246378467447537 0 0 0
11974 1 2 0 72.51036933294382 14.248015997366876 -2.1907727255570384 0 0 0
8367 1 1 0 73.9743695792697 13.649843100527816 -1.6477480348654487 0 0 0
11985 1 2 0 69.73600061880944 15.257177733455269 -2.1934140339904857 0 0 0
8375 1 1 0 71.31251169043186 15.27708141071623 -1.63535688416989 0 0 0
14857 1 2 0 73.97405931459026 13.767732660516968 -1.013240479763239e-07 0 0 0
14865 1 2 0 71.25618374897593 15.098630206961491 -1.3253350085011527e-07 0 0 0
11973 1 2 0 75.44000851400484 14.194124961555959 -2.2316591021283383 0 0 0
8368 1 1 0 76.92752880421217 14.554270378426288 -1.5786363376255823 0 0 0
11975 1 2 0 78.37854950428721 14.06767460387978 -2.2331442624408893 0 0 0
8369 1 1 0 79.94566853250768 14.065800496171995 -1.649202012147516 0 0 0
11976 1 2 0 76.98279545060393 16.16159812012805 -1.8346901765296388 0 0 0
8340 1 1 0 81.54613779181604 11.446179219310212 -1.6434891021726847 0 0 0
11933 1 2 0 83.09453743203454 11.86676398281153 -2.1548007997523158 0 0 0
8339 1 1 0 84.6933928411377 12.048680964794444 -1.6476445033766713 0 0 0
11935 1 2 0 80.56373349410767 12.64546018077993 -2.20553972465466 0 0 0
11977 1 2 0 80.96217926653297 15.269622242834423 -2.1950843438932046 0 0 0
14830 1 2 0 81.57487719238779 11.379996070097414 -2.420285634438512e-07 0 0 0
14829 1 2 0 84.64552924600734 12.11721954201538 -9.385539204488548e-08 0 0 0
11934 1 2 0 85.72281921661916 13.283145895343885 -2.158529321304271 0 0 0
8350 1 1 0 86.70179477160998 14.563069544294363 -1.6416169801927936 0 0 0
11952 1 2 0 88.29344936125746 14.8668198756914 -2.165084415687065 0 0 0
11950 1 2 0 91.00975323451776 14.566406752062786 -2.2452856596424127 0 0 0
11953 1 2 0 85.89133996105959 15.874483059155256 -2.209381114370111 0 0 0
8351 1 1 0 89.77860532370528 15.489035494099799 -1.6458668637514182 0 0 0
14840 1 2 0 86.7799927013204 14.428168626335141 -2.6472434925561327e-07 0 0 0
14841 1 2 0 89.68389047381896 15.501031672942936 -1.2756777321684117e-07 0 0 0
11948 1 2 0 91.36684740194065 12.054958565683988 -2.32182064782432 0 0 0
11959 1 2 0 94.19561869893164 11.036114909962972 -2.293418985729376 0 0 0
8349 1 1 0 92.0046853160101 13.417566973390475 -1.6479169999924868 0 0 0
8359 1 1 0 94.73380320461028 12.447518929507336 -1.6456037556872336 0 0 0
11951 1 2 0 93.59326702131774 13.571915672046265 -2.1245824009762444 0 0 0
11963 1 2 0 96.25838276949266 12.562461060917983 -2.2511209151598406 0 0 0
14839 1 2 0 91.95215256673663 13.420993387333116 -1.249980669834886e-07 0 0 0
9099 1 2 0 98.97681059320739 11.894203970613924 -2.200993881604471 0 0 0
6496 1 1 0 100.29540859998743 11.044582285338361 -1.646315597995922 0 0 0
9094 1 2 0 101.75742819256418 11.687318206554322 -2.162326768331382 0 0 0
8358 1 1 0 97.76507471619104 12.876712066485506 -1.6455340877751363 0 0 0
9260 1 2 0 98.01558405394653 14.380210710527134 -2.237695526709526 0 0 0
9095 1 2 0 102.52939161239185 14.269666567665661 -2.2115800148351776 0 0 0
6592 1 1 0 98.66216198972593 15.754860101300052 -1.6425654457852903 0 0 0
9223 1 2 0 100.2160542110055 15.754295400515737 -2.181186005680394 0 0 0
6568 1 1 0 101.76776815934875 15.63078005999623 -1.641270677443227 0 0 0
12986 1 2 0 100.30674182424666 11.038466292300926 -4.2325970648618424e-07 0 0 0
14848 1 2 0 97.75333339166228 12.808639412505705 -1.0061769723871429e-07 0 0 0
13082 1 2 0 98.64119553683904 15.80109796732369 -5.55062172303315e-07 0 0 0
6912 1 1 0 6.947133586285644 16.873978154865032 -1.6521587156793383 0 0 0
9763 1 2 0 8.319317990792376 17.63167613077933 -2.1808932063152833 0 0 0
6909 1 1 0 9.876567580206766 17.41475243795455 -1.6426856184105447 0 0 0
9762 1 2 0 10.870079296985171 18.561004196666097 -2.2580455425641657 0 0 0
9824 1 2 0 7.306766374335827 21.51888922082826 -2.1300934004362624 0 0 0
9766 1 2 0 10.139479400430528 21.01409081534261 -2.1420293851160324 0 0 0
6911 1 1 0 11.364513991885978 20.00848017324823 -1.643783367338425 0 0 0
13401 1 2 0 11.407698714295183 20.05775547895086 -1.1618804761585991e-07 0 0 0
6910 1 1 0 14.30203351880845 19.313151751402174 -1.6411377491026156 0 0 0
9619 1 2 0 14.044972567240201 17.77722572236272 -2.173599641959593 0 0 0
9764 1 2 0 12.956626356531137 20.18703997931407 -2.162133563264626 0 0 0
9765 1 2 0 15.822787073399322 19.686275457237617 -2.2084952276840446 0 0 0
6933 1 1 0 17.2277535647694 20.39304674016056 -1.6458707299239073 0 0 0
9797 1 2 0 17.071050981224573 21.9040491732486 -2.2518914020210348 0 0 0
9723 1 2 0 19.919331881399277 17.577398705722537 -2.2092869336368786 0 0 0
6888 1 1 0 20.130704774040016 19.127460249188097 -1.6463221177395793 0 0 0
9730 1 2 0 18.718019398808913 19.857209558480864 -2.166979324141248 0 0 0
9729 1 2 0 21.569500737210483 19.864137798278517 -2.16588232027278 0 0 0
6889 1 1 0 23.073743787438467 20.47236801049577 -1.6467801444859027 0 0 0
13379 1 2 0 23.027662304213834 20.428345206308823 -6.078440137743151e-08 0 0 0
9731 1 2 0 23.47684662220505 22.02381779531584 -2.1367994339975755 0 0 0
9647 1 2 0 25.614215546303985 17.15709944182894 -2.179078562784814 0 0 0
6887 1 1 0 25.69225441385082 18.719486832125725 -1.6436109567229216 0 0 0
9727 1 2 0 24.358338014391514 19.54856656107713 -2.205072377128871 0 0 0
9728 1 2 0 27.168999029591298 19.292892296534827 -2.1810779353978775 0 0 0
6917 1 1 0 28.744736781074206 19.1361338423527 -1.6465034266336942 0 0 0
13377 1 2 0 25.66652625812558 18.792828980046785 -1.3493930206536478e-08 0 0 0
13407 1 2 0 28.746929202887834 19.160451285310174 -1.5450789969646577e-07 0 0 0
9733 1 2 0 34.05823086762906 16.714265894458762 -2.1772787320015863 0 0 0
9734 1 2 0 29.41342704760989 17.713843381819057 -2.1928877993578295 0 0 0
9742 1 2 0 34.37653835282337 19.441622581351655 -2.1855631582763673 0 0 0
9774 1 2 0 29.68169701152801 20.388618121261736 -2.2062919705128405 0 0 0
9801 1 2 0 32.26396078779579 21.31808650918566 -2.1701446109034084 0 0 0
6936 1 1 0 30.683976604510093 21.598569162844555 -1.647044854320159 0 0 0
6937 1 1 0 33.82201202241656 20.93775491555124 -1.645312467385248 0 0 0
13426 1 2 0 30.706553609595186 21.60861430680312 -2.843226516949869e-07 0 0 0
13427 1 2 0 33.78015320059039 20.894545835601054 -4.5101236772398264e-07 0 0 0
6895 1 1 0 38.059825648946344 17.180747349388323 -1.6444959626650588 0 0 0
6896 1 1 0 34.99967307557834 17.97656294413329 -1.6458869130956497 0 0 0
9740 1 2 0 36.543756248843685 17.63216719101082 -2.190910006099477 0 0 0
9741 1 2 0 39.10263745755069 18.384968412690473 -2.1430531073669465 0 0 0
6921 1 1 0 40.172134159454394 19.568608054541716 -1.6439975518931416 0 0 0
9780 1 2 0 39.6801383078811 21.11218858276279 -2.1593094362048704 0 0 0
13385 1 2 0 38.02442913419861 17.11088994900132 -1.4230053575983795e-07 0 0 0
9745 1 2 0 43.62053586651848 16.936278855486485 -2.161256466685353 0 0 0
9778 1 2 0 41.68425155749579 19.047465428954204 -2.1748203610398686 0 0 0
6920 1 1 0 43.18037458264913 18.487311811508224 -1.6488810878882731 0 0 0
9779 1 2 0 44.2889538948817 19.604377089796333 -2.2111106666403586 0 0 0
6941 1 1 0 45.67533325255531 20.32235239911183 -1.636695699692928 0 0 0
9809 1 2 0 46.004913090521946 21.85063746657076 -2.2109621833288435 0 0 0
9807 1 2 0 46.89587366171162 19.315497787832008 -2.1153778327746653 0 0 0
6940 1 1 0 48.45183063486926 19.071886820833836 -1.6393989654241468 0 0 0
9751 1 2 0 49.00362766612028 17.64427976882396 -2.245746626205144 0 0 0
9808 1 2 0 49.36071036859881 20.294660255817327 -2.260123145651006 0 0 0
6947 1 1 0 50.46593831017426 21.340962961505618 -1.6422821677515045 0 0 0
13437 1 2 0 50.47326063466019 21.276266297005375 -8.133608298879999e-08 0 0 0
9750 1 2 0 53.015920270316656 16.590767266654225 -2.214926686730202 0 0 0
6929 1 1 0 54.105260571515124 17.68238570445249 -1.6450978201213093 0 0 0
9792 1 2 0 53.858533344896195 19.204112072755606 -2.220537860798854 0 0 0
9817 1 2 0 51.92282639480183 20.938184924554854 -2.2634614201901653 0 0 0
6946 1 1 0 53.41857395726132 20.684394336354153 -1.64593866538622 0 0 0
9818 1 2 0 54.36535960194925 21.904199837403112 -2.219236434336204 0 0 0
9791 1 2 0 55.53960573903545 17.199463449460012 -2.2663229036700043 0 0 0
6930 1 1 0 57.00779612899422 16.8626990585996 -1.6434986387045523 0 0 0
13436 1 2 0 53.43727414492771 20.6802561740598 -2.3318624195524962e-07 0 0 0
6970 1 1 0 58.975789505774664 19.140504365768614 -1.6377192520928814 0 0 0
9793 1 2 0 58.05531608315044 17.949002258099366 -2.274887712866606 0 0 0
9855 1 2 0 60.51460443976085 18.89536724562592 -2.1272324754486895 0 0 0
6976 1 1 0 61.7573188306282 17.944432174739365 -1.636281456347268 0 0 0
9854 1 2 0 58.466571042759675 20.554657223078898 -2.2728262650510125 0 0 0
13460 1 2 0 58.85626868768647 19.16629602078551 -6.595533362935656e-08 0 0 0
9864 1 2 0 63.08035422076649 18.707264721027013 -2.245375442979338 0 0 0
12014 1 2 0 65.59894765017894 19.22822884279568 -2.198640799215216 0 0 0
8394 1 1 0 67.08791609755323 18.753114994873258 -1.6449039372620782 0 0 0
11987 1 2 0 67.74485094949614 17.341482088500427 -2.206159356316914 0 0 0
12016 1 2 0 63.75709678490357 21.348432095894488 -2.1929211863778 0 0 0
8395 1 1 0 64.14979742746274 19.819001129963613 -1.6481941105910103 0 0 0
12015 1 2 0 68.13147456638828 19.85432800997587 -2.2639535338874963 0 0 0
11986 1 2 0 71.80214017030745 16.73623828748154 -2.185607353239985 0 0 0
11990 1 2 0 72.44678779465252 19.15487380096783 -2.305440855281572 0 0 0
8378 1 1 0 72.95701635335739 17.750060742354677 -1.6455848608796786 0 0 0
8406 1 1 0 68.95939517000092 21.10629187738358 -1.6404366628076332 0 0 0
12031 1 2 0 70.4933537460582 21.059274138883428 -2.249738452232594 0 0 0
8407 1 1 0 71.93277408435647 20.550613988912147 -1.6306287911110287 0 0 0
12033 1 2 0 73.14996658694912 21.5469641457962 -2.062354968720995 0 0 0
14868 1 2 0 72.97944567574729 17.78866075610276 -2.1368475734760344e-07 0 0 0
8377 1 1 0 75.93787090364378 17.388505334056326 -1.6066506982321185 0 0 0
11988 1 2 0 74.42120164185131 17.263291750790334 -2.241419880830349 0 0 0
11989 1 2 0 76.77898745085137 18.54634958071426 -2.3828767830116164 0 0 0
8397 1 1 0 77.5653233966002 19.76858678939279 -1.6420038332187663 0 0 0
12017 1 2 0 79.10671753040846 19.84134999935739 -2.229839946754053 0 0 0
12019 1 2 0 76.53377933015142 20.964353679084343 -2.0744074687038823 0 0 0
8380 1 1 0 81.8105575856885 16.58725995449885 -1.647068712189206 0 0 0
11991 1 2 0 83.37473353689177 16.71813279544335 -2.2020931768565943 0 0 0
8379 1 1 0 84.90313595277696 17.0549360338476 -1.6444905652967061 0 0 0
8396 1 1 0 80.57105991531252 19.349940681181543 -1.6378909836561375 0 0 0
11993 1 2 0 80.99597856581624 17.88965748474474 -2.2532010176198294 0 0 0
11992 1 2 0 85.57745800950546 18.460228111943504 -2.2122436486092703 0 0 0
12018 1 2 0 81.71768120400627 20.43805078865474 -2.1075959901844197 0 0 0
8410 1 1 0 81.88329279032473 22.012411913779186 -1.6389071384651988 0 0 0
12003 1 2 0 85.55144689761978 21.087383112191187 -2.229133153394811 0 0 0
11954 1 2 0 90.36484748154966 16.976932065617866 -2.16336220659932 0 0 0
11999 1 2 0 90.62543609776834 19.5538824848202 -2.167829518993333 0 0 0
8386 1 1 0 86.38536732066734 19.791004572350264 -1.6472531001090769 0 0 0
12001 1 2 0 87.93536808179071 19.926144812934496 -2.2310767266183125 0 0 0
8385 1 1 0 89.3803157627932 20.486758457841585 -1.639544275609008 0 0 0
12002 1 2 0 89.7291459506028 22.019044214988554 -2.157190615391647 0 0 0
8384 1 1 0 91.39191893150043 18.193159945262188 -1.636793389466726 0 0 0
12000 1 2 0 92.98005722652167 18.420950468828572 -2.1704865900738484 0 0 0
8389 1 1 0 94.24897477089075 19.400699327559497 -1.6478804010801067 0 0 0
9261 1 2 0 95.73838276103945 18.85859463922074 -2.208761714677528 0 0 0
12007 1 2 0 94.0452566939794 20.978682496184724 -2.163614999289437 0 0 0
14879 1 2 0 94.28491501391744 19.3667323186352 -1.7421129582637323e-08 0 0 0
9259 1 2 0 97.70740389263972 16.961046812564035 -2.2391692108893233 0 0 0
9220 1 2 0 102.47621616159456 17.013585690900033 -2.2023717744771396 0 0 0
6593 1 1 0 97.25414395870749 18.43902925441476 -1.6418554573164796 0 0 0
9257 1 2 0 98.48837421573515 19.43287602071237 -2.1277152528373575 0 0 0
6567 1 1 0 102.58834013074309 18.575234962002227 -1.6482684823148896 0 0 0
9222 1 2 0 101.29094878355416 19.526100908232497 -2.178666249983189 0 0 0
6591 1 1 0 99.85488394813515 20.237314779352975 -1.6404493845631194 0 0 0
9258 1 2 0 99.5603270885523 21.777593595619905 -2.2071582186820584 0 0 0
6950 1 1 0 8.913406433866783 22.040960051132092 -1.6428306019634251 0 0 0
9823 1 2 0 9.674509434021424 23.49777275872519 -2.13638375342559 0 0 0
6953 1 1 0 10.939882536516574 24.526482207696457 -1.6471073780193137 0 0 0
9829 1 2 0 10.498498363983131 26.061149459890277 -2.1591329944788447 0 0 0
6994 1 1 0 9.748252214456052 27.464180273169468 -1.6460555013594016 0 0 0
9892 1 2 0 8.15746882088884 27.42857598675083 -2.1833464384404593 0 0 0
13443 1 2 0 10.973198386025684 24.477674466158057 -1.741611313894331e-09 0 0 0
9827 1 2 0 12.556641800397877 24.20998042420954 -2.132645360754425 0 0 0
9825 1 2 0 15.623389516227032 24.035060944121987 -2.1534517433722895 0 0 0
6951 1 1 0 17.132045925054985 23.42288736172538 -1.642670199766446 0 0 0
6952 1 1 0 14.131581971482861 24.68142573466525 -1.6386103972129644 0 0 0
9828 1 2 0 14.24231332904852 26.23170853906087 -2.1852535070212853 0 0 0
13442 1 2 0 14.137501451986857 24.500734662175542 -2.3191724097846416e-07 0 0 0
9826 1 2 0 18.706937233671013 23.868904615325235 -2.104534516578371 0 0 0
6959 1 1 0 20.24063487763023 24.437185248455343 -1.6422673684877191 0 0 0
9836 1 2 0 21.81061700372508 23.992866938287072 -2.12821811981526 0 0 0
6958 1 1 0 23.401370413722507 23.631982265374077 -1.643112946700773 0 0 0
9838 1 2 0 20.18135478979057 25.93012837705067 -2.306218711034841 0 0 0
6980 1 1 0 19.989437239391236 27.40205451874346 -1.6519161830058997 0 0 0
13449 1 2 0 20.270172563589977 24.31003321427367 -7.6784033299532e-08 0 0 0