LAMMPS data file via write_data, version 2 Aug 2023, timestep = 2112, units = metal

15456 atoms
2 atom types

7.038624839283135 197.15120787622175 xlo xhi
5.686436828090113 170.8744112071597 ylo yhi
-100 100 zlo zhi

Masses

1 28.085
2 15.999

Atoms # full

9543 1 2 0 12.1676671918891 7.927687030651687 -2.217588269771148 0 0 0
6775 1 1 0 8.276042659918579 9.543248891884328 -1.6470154769581955 0 0 0
9545 1 2 0 7.6422971430445426 8.102718904242915 -2.1401264198202745 0 0 0
9542 1 2 0 9.836416203335933 9.464847231761787 -2.2448852942558184 0 0 0
6774 1 1 0 11.372822631629328 9.26772122682453 -1.6443219523858406 0 0 0
9544 1 2 0 12.308396404967366 10.530609028421619 -2.1656771306830778 0 0 0
9546 1 2 0 7.080501319190163 10.63339234982263 -2.1698243944311497 0 0 0
13214 1 2 0 11.316432647383678 9.196804509401973 -2.268526261828533e-06 0 0 0
6776 1 1 0 12.993753978570007 6.604583978409122 -1.6466397006890368 0 0 0
9548 1 2 0 14.620243299790479 6.76572884186791 -2.1235883162062015 0 0 0
6790 1 1 0 16.084413438636535 6.024069483260921 -1.64195737680463 0 0 0
9570 1 2 0 17.651421304187338 6.687145386547588 -2.1405511621070934 0 0 0
13230 1 2 0 16.22482353015514 6.07545662743224 -4.621953861551581e-07 0 0 0
13216 1 2 0 13.022451256598478 6.527991851154778 -9.216396588727242e-08 0 0 0
6789 1 1 0 19.212325255853404 7.345779459210309 -1.6461692945903181 0 0 0
9571 1 2 0 20.635501594583822 6.536659988377484 -2.1386075605049584 0 0 0
6797 1 1 0 22.248865464462344 6.358806370192734 -1.6488588926115915 0 0 0
9581 1 2 0 23.427917105918347 7.420045098463692 -2.222789354896973 0 0 0
9568 1 2 0 19.625809652096468 8.925646794617103 -2.132685863657725 0 0 0
6788 1 1 0 20.428321148815005 10.336336290754128 -1.6458488217772327 0 0 0
9569 1 2 0 21.974434814583923 10.74888783463644 -2.2096831270226573 0 0 0
6795 1 1 0 23.491850303251553 11.155307116408745 -1.5924797408644042 0 0 0
13228 1 2 0 20.524367728201867 10.265063733639629 -6.611129795953657e-07 0 0 0
9591 1 2 0 28.8236911576326 7.469998848511109 -2.2076481360714384 0 0 0
6796 1 1 0 24.72977840930983 8.262958618290542 -1.5936137899869816 0 0 0
9579 1 2 0 24.435759595638462 9.848837377537402 -1.8776624880092274 0 0 0
9582 1 2 0 26.28034489286819 8.139743959931154 -2.225169430343916 0 0 0
6802 1 1 0 27.781726403757474 8.632055298011938 -1.65004840593161 0 0 0
9589 1 2 0 28.399289613972634 10.102853444642497 -2.1770024762062024 0 0 0
13236 1 2 0 24.831183206366 7.846407602264133 -2.266765681588273e-06 0 0 0
13242 1 2 0 27.743546365972392 8.66709864822311 -3.653624326177558e-07 0 0 0
6807 1 1 0 29.64873970261587 6.155304734030621 -1.6465770023382678 0 0 0
9597 1 2 0 31.203806254384485 6.332008208751712 -2.216289001204424 0 0 0
6805 1 1 0 32.75831482462636 6.2165807205970305 -1.6434661606857706 0 0 0
9593 1 2 0 33.77755830195417 7.38680594599906 -2.221458195114289 0 0 0
9592 1 2 0 34.66980043381703 9.839242838490122 -2.1839940140497633 0 0 0
13247 1 2 0 29.676496587247424 6.104973292984021 -6.58549430710604e-07 0 0 0
9594 1 2 0 36.511270560574005 7.677000653939872 -2.1870276163927453 0 0 0
6808 1 1 0 37.93117450295882 6.961095313235267 -1.6467905133889358 0 0 0
9601 1 2 0 39.260637132012654 7.785928093601365 -2.2090853367698915 0 0 0
6803 1 1 0 35.042110877758056 8.302767550143784 -1.6472949591439368 0 0 0
9603 1 2 0 40.55789151675538 10.105257516016986 -2.216303955595737 0 0 0
13243 1 2 0 35.0959249121759 8.297173795949162 -9.917710787869575e-08 0 0 0
9604 1 2 0 42.02212353180708 7.868771740001247 -2.2143725398252 0 0 0
6817 1 1 0 43.47326426769584 7.2908322168296475 -1.6466224746531033 0 0 0
9617 1 2 0 43.679418925679336 5.755417011390746 -2.2247367079544653 0 0 0
6809 1 1 0 40.61808440313859 8.556095402916588 -1.6455887855945888 0 0 0
9616 1 2 0 44.74466314303747 8.19072411320545 -2.2199895536784 0 0 0
6818 1 1 0 46.10769192103071 8.938903518135433 -1.6453380886451343 0 0 0
13249 1 2 0 40.630235925479454 8.519849753620745 -1.558448711550225e-08 0 0 0
13257 1 2 0 43.4674119599561 7.300640828399771 -1.0532082045853206e-07 0 0 0
9618 1 2 0 46.19157477810158 10.476947907406155 -2.224374305960416 0 0 0
6823 1 1 0 48.952440914668784 7.7567634128943075 -1.6459620973019864 0 0 0
9627 1 2 0 49.18915821852192 6.235243614143809 -2.232615272063562 0 0 0
9619 1 2 0 47.477726818029296 8.21984279506113 -2.2236279558005405 0 0 0
6824 1 1 0 51.4736436436148 9.556991400585659 -1.6456903996492658 0 0 0
9626 1 2 0 50.15890767731709 8.733729195349305 -2.2256297173039195 0 0 0
9628 1 2 0 51.49032404271357 11.096854528809358 -2.2279552770945 0 0 0
13263 1 2 0 48.968630701992 7.775845488654057 -1.2078585131812707e-08 0 0 0
13264 1 2 0 51.45461683831809 9.541633032752374 -4.3501369242574383e-07 0 0 0
9641 1 2 0 54.47271054286201 6.8296986891542275 -2.2305831911469896 0 0 0
6832 1 1 0 54.30592232636253 8.36149993628805 -1.6457072153882601 0 0 0
9629 1 2 0 52.8583745909627 8.883329230127568 -2.2315497931655743 0 0 0
6838 1 1 0 56.76617073951254 10.24799428407731 -1.6459020318074982 0 0 0
9642 1 2 0 55.52690580690312 9.316840089055843 -2.2256452777065516 0 0 0
13278 1 2 0 56.76043790872224 10.239800624667728 -3.786641323316833e-08 0 0 0
6843 1 1 0 59.87921297201549 5.993830053092251 -1.6457590166759783 0 0 0
9656 1 2 0 59.72945285913706 7.525128978103614 -2.2330092445209293 0 0 0
9652 1 2 0 58.19361963890433 9.667028961558236 -2.2310323153135996 0 0 0
6841 1 1 0 59.60887387388225 9.05950857513998 -1.6457323522078522 0 0 0
9657 1 2 0 60.86473021587848 9.960691213464544 -2.2282942453118766 0 0 0
6861 1 1 0 62.1191342647942 10.86491426645601 -1.6459523239584513 0 0 0
13301 1 2 0 62.117538744955056 10.861622791096666 -1.4506278840330924e-07 0 0 0
11805 1 2 0 63.96262855651632 5.764263174625603 -2.236916909502527 0 1 0
8255 1 1 0 65.25578599677092 6.594468811431051 -1.6457759720022522 0 0 0
11806 1 2 0 66.63219590670927 5.905811416686802 -2.235583335012718 0 0 0
9688 1 2 0 63.53050579054358 10.24260210516357 -2.230687988939806 0 0 0
8254 1 1 0 64.95443665883083 9.651535980703725 -1.645667877406593 0 0 0
11803 1 2 0 65.15327997576979 8.127492217525168 -2.2353285665024423 0 0 0
11804 1 2 0 66.19027324282484 10.568967416396381 -2.233352051127976 0 0 0
14695 1 2 0 65.25981838854295 6.588021836244566 -3.4070483135585064e-07 0 0 0
14694 1 2 0 64.95156528318536 9.652622467885088 -1.4331529490944908e-07 0 0 0
11810 1 2 0 69.25697824175785 6.34736037417659 -2.230515888722567 0 0 0
8258 1 1 0 70.61649964173832 7.070711671678557 -1.6461633323037488 0 0 0
11811 1 2 0 71.90468817853035 6.209730651622561 -2.2241135224430617 0 0 0
8262 1 1 0 73.36454472337788 5.688081609316615 -1.6456405562163268 0 0 0
8259 1 1 0 70.31214393501274 10.13901978182224 -1.6461183546392384 0 0 0
11809 1 2 0 70.62044678824341 8.620331834642627 -2.224199971101166 0 0 0
11812 1 2 0 68.85788161604347 10.664174146997563 -2.2270842140647735 0 0 0
11813 1 2 0 71.46583571599751 11.163015076159056 -2.229102321527075 0 0 0
11816 1 2 0 74.46356533024365 6.765820621481839 -2.2247538303465677 0 0 0
8263 1 1 0 75.76779142959629 7.581141446867947 -1.6464495239703982 0 0 0
11819 1 2 0 77.08824262594628 6.815482779530664 -2.2653943967943366 0 0 0
8270 1 1 0 78.45256751210647 6.149684288645782 -1.6395709862180798 0 0 0
11829 1 2 0 79.675492500836 7.110923554038404 -2.1439446879525206 0 0 0
11818 1 2 0 75.71372225995005 9.11806182824406 -2.2364945716500775 0 0 0
8264 1 1 0 75.52296004851377 10.647400849444749 -1.645269622511823 0 0 0
14703 1 2 0 75.79359947030326 7.589754186218731 -1.3081818624337275e-07 0 0 0
14710 1 2 0 78.36351992719732 6.071018592228046 -8.030206946513301e-07 0 0 0
8271 1 1 0 81.16793184126237 7.572750647618368 -1.635362482345126 0 0 0
11832 1 2 0 82.24567068877485 6.418079662051137 -2.2023491611025827 0 0 0
11831 1 2 0 81.21898604826045 9.148229320831623 -2.2084791456170634 0 0 0
8272 1 1 0 80.73796759408188 10.650598329240962 -1.6479170221902435 0 0 0
14712 1 2 0 80.72653551620249 10.603490158127725 -1.5112499225086678e-07 0 0 0
11841 1 2 0 86.54771558116157 7.075310324756443 -2.1641048773727025 0 0 0
8277 1 1 0 87.16756530892502 8.553465345328936 -1.6474875361307308 0 0 0
11842 1 2 0 86.46595957103982 9.998934550802458 -2.1927112201585968 0 0 0
8282 1 1 0 90.2477446101552 8.487021560398372 -1.6411109491261673 0 0 0
11843 1 2 0 88.71251496155163 8.506954396119392 -2.244425475131753 0 0 0
11849 1 2 0 91.2251519899834 7.30590327781196 -2.2571201701435877 0 0 0
11850 1 2 0 90.92397860480094 9.879262069562488 -2.185813594759209 0 0 0
8283 1 1 0 92.03712754120174 6.002774273093882 -1.6475450086226087 0 1 0
8293 1 1 0 94.91294215101927 6.283885723909568 -1.5551736999019727 0 0 0
11866 1 2 0 94.56793834187256 7.880605584022094 -1.6554269009172977 0 0 0
11868 1 2 0 96.37650793816178 5.969552837737728 -2.2611445487804516 0 0 0
8292 1 1 0 94.8782487028161 9.475102264015943 -1.5632917637880759 0 0 0
11857 1 2 0 93.63946593073975 10.257266156483466 -2.3038971577159 0 0 0
11867 1 2 0 96.31435651066164 9.772496074835024 -2.3211137123266448 0 0 0
8286 1 1 0 92.20041864878498 10.75825920446494 -1.6489899697716155 0 0 0
14733 1 2 0 94.98419948522924 5.73563918026995 -1.1329471249522388e-07 0 0 0
14726 1 2 0 92.25816352222911 10.708240304851808 -1.773875638040197e-07 0 0 0
11879 1 2 0 99.26228057312028 5.8048651914826035 -2.146603455193088 0 0 0
8301 1 1 0 99.83386916020046 7.3023164617664 -1.6442641178757302 0 0 0
9040 1 2 0 101.2756104027063 7.92194841547814 -2.2371141094392657 0 0 0
8297 1 1 0 97.80114607290996 9.524078724767941 -1.6472006170555566 0 0 0
11875 1 2 0 98.53075547621573 8.16369646625588 -2.196567423670589 0 0 0
11874 1 2 0 98.7965075789919 10.666106364940017 -2.2358418158465674 0 0 0
14741 1 2 0 99.96699509941988 7.326145962371132 -6.892536621644845e-08 0 0 0
14737 1 2 0 97.71627065646896 9.511971453853203 -4.279051421240457e-08 0 0 0
9557 1 2 0 8.926203472479232 12.169633335436083 -1.9241306667241478 0 0 0
6786 1 1 0 7.264310162996669 12.2094180669965 -1.620817479914819 1 0 0
9554 1 2 0 11.495188073148695 13.088414298259961 -2.2360871759063436 0 0 0
6781 1 1 0 9.983332765798817 13.401248958554573 -1.6048811107629473 0 0 0
9556 1 2 0 8.946117394152058 14.583896262485593 -2.1640673288442307 0 0 0
6784 1 1 0 9.100231941112968 16.14606796351493 -1.6425726830528495 0 0 0
9562 1 2 0 10.635510987521943 16.329031548209137 -2.244596063897966 0 0 0
13224 1 2 0 9.136060001543813 16.37551047981812 -2.862907299841949e-06 0 0 0
6780 1 1 0 12.68551085887927 12.04843008564203 -1.6478558612202319 0 0 0
9555 1 2 0 14.21774687759464 12.361120795603089 -2.235948943752471 0 0 0
9559 1 2 0 17.080453093191146 12.569159399303995 -2.2003731155135173 0 0 0
6782 1 1 0 15.598947648508364 13.079227368877842 -1.6340175097077414 0 0 0
9558 1 2 0 15.586605053007485 14.644343316482797 -2.1403751608869825 0 0 0
9560 1 2 0 13.446530213778477 16.174193569496268 -2.2486891514026763 0 0 0
6783 1 1 0 14.984364439218451 16.08185211298154 -1.639649062480059 0 0 0
13222 1 2 0 15.590958790617512 12.881016109481086 -3.5511010009696566e-06 0 0 0
13223 1 2 0 14.950842931802894 16.17902179193076 -3.7604908474359625e-06 0 0 0
9566 1 2 0 19.49914359215766 11.581728593004506 -2.214217702690868 0 0 0
6787 1 1 0 18.632440523519342 12.867137866701935 -1.6483589552266638 0 0 0
9567 1 2 0 19.345866911052862 14.277798988001733 -2.201953155853363 0 0 0
6793 1 1 0 19.820219195330964 15.779347073692351 -1.645846599044464 0 0 0
9577 1 2 0 21.317931588285457 16.26117169474687 -2.2070071954269794 0 0 0
13235 1 2 0 23.24895042015387 11.514556076443073 -1.6592738204012626e-07 0 0 0
9580 1 2 0 24.48835430554661 12.38372708292408 -2.1990815148236793 0 0 0
9585 1 2 0 27.36216892982442 12.547408463074648 -2.16694489954376 0 0 0
6801 1 1 0 28.700546445367536 11.671262973952029 -1.6458163142356759 0 0 0
6798 1 1 0 25.88515773682783 13.166555873544382 -1.6502362859934347 0 0 0
9584 1 2 0 25.856623259526717 14.746103925716996 -2.2009643572833415 0 0 0
9586 1 2 0 23.988815174562763 16.666701094919315 -2.1951688594201633 0 0 0
6799 1 1 0 25.50950742199067 16.277686146320637 -1.6455118913998679 0 0 0
13241 1 2 0 28.76433216975426 11.682041160536683 -2.185271412050895e-06 0 0 0
13238 1 2 0 25.87343175911242 13.124780364002246 -2.9564384649828152e-06 0 0 0
13239 1 2 0 25.555138685421998 16.272342260575464 -1.9697859518785313e-06 0 0 0
9590 1 2 0 30.2019086824623 12.30328757829732 -2.159314123457837 0 0 0
9595 1 2 0 33.06158521633264 12.17985400160328 -2.1527925013971045 0 0 0
6804 1 1 0 34.49533411124324 11.415580963453582 -1.6459139742656095 0 0 0
6806 1 1 0 31.66213914109033 13.029343047862808 -1.6496695598495446 0 0 0
9599 1 2 0 31.710843594316415 14.64984851265013 -2.1678073825932835 0 0 0
6846 1 1 0 32.092168454559605 16.216521432687017 -1.6415254421377055 0 0 0
9664 1 2 0 33.64022144864523 16.517195293141633 -2.1663603830413387 0 0 0
9596 1 2 0 35.91566117279614 12.124238144833845 -2.1878759236134298 0 0 0
6811 1 1 0 37.35101642252179 12.777867219741353 -1.6451576141399047 0 0 0
9605 1 2 0 38.784063007467275 12.106828844560258 -2.1956242999307842 0 0 0
6810 1 1 0 40.29125400591046 11.635350846570308 -1.647325746001262 0 0 0
9607 1 2 0 37.33054795830727 14.318352663041404 -2.2332143713090304 0 0 0
6852 1 1 0 37.499489101372156 15.843945091137398 -1.6462751642816384 0 0 0
9674 1 2 0 38.92322458185914 16.426204455037695 -2.2409783089476547 0 0 0
13250 1 2 0 40.289095218444444 11.665706462437644 -1.5813205012928176e-07 0 0 0
9606 1 2 0 41.57162964137557 12.55979978775793 -2.208340642301335 0 0 0
9620 1 2 0 44.332860461683474 12.271218747232952 -2.2033461119940547 0 0 0
6819 1 1 0 45.865148443596055 11.984470620133905 -1.6459856030290225 0 0 0
6820 1 1 0 43.034922710528384 13.135903785200087 -1.645066012337691 0 0 0
9622 1 2 0 43.42626929903869 14.643340608805575 -2.2009735672433615 0 0 0
9679 1 2 0 41.60549519548327 16.39785466947252 -2.2250873733939684 0 0 0
6856 1 1 0 43.12471061741724 16.164528098914964 -1.6441635631944786 0 0 0
13260 1 2 0 42.96965104991039 13.110686992699499 -2.396337828695876e-07 0 0 0
6825 1 1 0 51.24325240806899 12.617338070129152 -1.6454018909833361 0 0 0
9621 1 2 0 47.03510712881912 13.019299759010039 -2.223748887824936 0 0 0
6826 1 1 0 48.403256378229514 13.766943074945795 -1.6461072997018489 0 0 0
9630 1 2 0 49.754350182694715 13.019063610302029 -2.2245242772113722 0 0 0
9632 1 2 0 48.56950155725382 15.302220456150463 -2.2235423780729526 0 0 0
13266 1 2 0 48.369387450700266 13.756123888896916 -4.840046517087622e-07 0 0 0
6840 1 1 0 53.67431677429695 14.54823693006711 -1.646348626741255 0 0 0
9631 1 2 0 52.4207192289765 13.630488480512131 -2.2243417938044168 0 0 0
9655 1 2 0 53.54319633840416 16.091480017710698 -2.224742379327106 0 0 0
9651 1 2 0 56.6216838594869 11.785157331338853 -2.2278588666430243 0 0 0
6839 1 1 0 56.51018774334473 13.325215039122654 -1.6457380505943866 0 0 0
9653 1 2 0 55.096903871139105 13.945906158595358 -2.2275129122318744 0 0 0
13280 1 2 0 53.67275160516304 14.540673361816726 -1.6474707272559808e-07 0 0 0
13279 1 2 0 56.52892254199261 13.328042123851368 -5.691486785562129e-08 0 0 0
9687 1 2 0 61.976485067274865 12.401396062876955 -2.2294178284997344 0 0 0
9654 1 2 0 57.769530304496 14.22778121456471 -2.224690867712437 0 0 0
9685 1 2 0 60.429589150590466 14.570043487027084 -2.227772906375817 0 0 0
6862 1 1 0 61.839008543361075 13.938675301858005 -1.6458816540293717 0 0 0
6860 1 1 0 59.00364872782473 15.165041424902174 -1.646012547705147 0 0 0
8261 1 1 0 67.49425257642774 11.388992357616884 -1.6458279205992243 0 0 0
9689 1 2 0 63.09388352845141 14.8405423851519 -2.2281638777266712 0 0 0
11881 1 2 0 65.75932290893208 15.023537401274758 -2.2305857344785567 0 0 0
8304 1 1 0 67.1916814101155 14.453261149128132 -1.6458201287712153 0 0 0
11815 1 2 0 67.41608578583535 12.928451869050651 -2.2317426913619043 0 0 0
8305 1 1 0 64.37583981117776 15.703636346560737 -1.6458505379822457 0 0 0
11882 1 2 0 68.39890714496717 15.407718835185507 -2.2346460784004845 0 0 0
14701 1 2 0 67.49259832720276 11.393062425153605 -1.1897190560748369e-07 0 0 0
14745 1 2 0 64.3722171083473 15.70746999742005 -1.2633243763366203e-07 0 0 0
8265 1 1 0 72.76705302569916 11.993879750178237 -1.645764450983487 0 0 0
11822 1 2 0 72.74997161516784 13.537910864396826 -2.23027817266283 0 0 0
8308 1 1 0 72.50411623322414 15.064386900569287 -1.6458937735103125 0 0 0
8309 1 1 0 69.6824214157989 16.257452814997063 -1.6454304421793395 0 0 0
11887 1 2 0 71.0512295680012 15.565660824167912 -2.2370324255610003 0 0 0
11888 1 2 0 73.63130343912555 16.12677732962957 -2.217275932502163 0 0 0
11820 1 2 0 74.10907617423085 11.247478117070754 -2.2357206013821362 0 0 0
14705 1 2 0 72.75676775758251 11.996853153468678 -4.820727024947712e-08 0 0 0
14749 1 2 0 69.67502468292777 16.260054332980985 -1.6943969639274678e-07 0 0 0
11821 1 2 0 76.71368184345644 11.62189139583059 -2.226020584431559 0 0 0
8273 1 1 0 78.10194953150408 12.302543157291257 -1.6467090633026928 0 0 0
11833 1 2 0 79.29263458066715 11.276466347243986 -2.1904662006550755 0 0 0
11835 1 2 0 78.1452107107 13.877212679021278 -2.2151235917328953 0 0 0
11896 1 2 0 76.215938492823 15.82884308036028 -2.2048498186983987 0 0 0
8314 1 1 0 77.71095231379725 15.388935828080593 -1.6440523336594237 0 0 0
11897 1 2 0 78.64798560237664 16.648417575112468 -2.1727998519256175 0 0 0
14713 1 2 0 78.13241420700335 12.341173045763979 -6.097273263567019e-07 0 0 0
14754 1 2 0 77.73302809312555 15.315565297721077 -1.9582173452305444e-07 0 0 0
11834 1 2 0 81.79003067234741 11.763077483630514 -2.249482249688619 0 0 0
8280 1 1 0 83.06378883192353 12.598752705170389 -1.6453504930595144 0 0 0
11845 1 2 0 84.34196471448159 11.68436782963942 -2.161692832642763 0 0 0
11847 1 2 0 82.9785889275491 14.152941261660006 -2.251876768793924 0 0 0
11899 1 2 0 81.14609027939812 16.239167203257583 -2.2895662090135955 0 0 0
8316 1 1 0 82.51489779323396 15.619384478948056 -1.6128550900535805 0 0 0
8279 1 1 0 85.90049488358073 11.488032802359953 -1.6389794408100617 0 0 0
11846 1 2 0 86.57678627483081 12.914464505942492 -2.197377459891884 0 0 0
8288 1 1 0 86.74842125980656 14.47921330927917 -1.6470039613092042 0 0 0
11860 1 2 0 88.19136096263843 14.889478772083244 -2.276244308033956 0 0 0
11858 1 2 0 90.65608438174519 14.560187556164509 -2.2596177775218367 0 0 0
11861 1 2 0 85.8288107300776 15.74617502812622 -2.2349532603495286 0 0 0
8289 1 1 0 89.52723503904488 15.571277680739682 -1.6541321874747037 0 0 0
14729 1 2 0 89.54158293926132 15.583210732198731 -1.0229769511646438e-07 0 0 0
11856 1 2 0 91.89717006416 12.238427951446823 -2.2661412049432834 0 0 0
8287 1 1 0 91.92366183763922 13.749786125172228 -1.6424340597912086 0 0 0
11859 1 2 0 93.19627491449815 14.534318584178843 -2.2799178725879963 0 0 0
8300 1 1 0 94.5718562769701 15.14970102320093 -1.6651118307360355 0 0 0
11877 1 2 0 95.65418215567573 14.052486423782229 -2.3068536501975 0 0 0
14727 1 2 0 91.94473879398028 13.692752756082387 -2.4537756490179415e-07 0 0 0
14740 1 2 0 94.61433855727886 15.145361186417482 -5.322183562772196e-07 0 0 0
8298 1 1 0 99.37046654250408 12.067074045612427 -1.647208038060194 0 0 0
9125 1 2 0 100.9070099114726 12.066104783827598 -2.2548396875884618 0 0 0
8299 1 1 0 97.09150186036712 13.965421072961979 -1.5100641313094578 0 0 0
11876 1 2 0 98.31030347607377 13.17874895762643 -2.277621708839541 0 0 0
6502 1 1 0 101.47439946820505 15.475090405630972 -1.639906753056 0 0 0
6537 1 1 0 98.81280776655663 16.367535926835625 -1.521566889091593 0 0 0
9178 1 2 0 97.39270343117416 15.589721080870452 -1.4414485792032976 0 0 0
9124 1 2 0 99.9218091076584 15.346734649002007 -2.201673829909635 0 0 0
14738 1 2 0 99.4372165022117 12.173796902335605 -3.0982707671005877e-07 0 0 0
12942 1 2 0 101.64112288172248 15.353029790484683 -1.5587233764527336e-07 0 0 0
14739 1 2 0 96.87635696359868 13.304772525563251 -5.5910041175486655e-09 0 0 0
9563 1 2 0 7.745715293214216 16.947145553058853 -2.222645027970891 0 0 0
6785 1 1 0 12.069806177725923 16.863096133798773 -1.6427547051034448 0 0 0
6866 1 1 0 7.251021610240964 18.433325099649593 -1.5943483302960055 0 0 0
9695 1 2 0 8.648514813301917 19.23974709211963 -1.928108332514312 0 0 0
9564 1 2 0 12.016044416400833 18.35459289813083 -2.2888610946419155 0 0 0
6867 1 1 0 11.885493442398994 19.834597048293947 -1.640990049482855 0 0 0
6868 1 1 0 9.176820768624852 20.751725774026177 -1.6214985081382982 0 0 0
9699 1 2 0 8.19989915689944 21.91256675568464 -2.277891167666542 0 0 0
9697 1 2 0 10.681808105781712 20.758082942890518 -2.285071386554608 0 0 0
13225 1 2 0 12.098182602000726 16.73729867208201 -3.2410792594611023e-06 0 0 0
9561 1 2 0 16.019860490420175 17.237210771950643 -2.2211525781016803 0 0 0
6794 1 1 0 17.472448292219095 17.812852123083943 -1.6477871398406465 0 0 0
9578 1 2 0 17.64360904659795 19.367884256611887 -2.220194083491695 0 0 0
9698 1 2 0 13.27761822901545 20.425255922315454 -2.198000962715978 0 0 0
6875 1 1 0 14.196769597166995 21.628806387521642 -1.6446704652739075 0 0 0
9708 1 2 0 15.617320372578536 21.14697826504872 -2.2870194871280063 0 0 0
6874 1 1 0 17.08795802272199 20.81975383673119 -1.644140758321867 0 0 0
9709 1 2 0 17.909012943003376 22.141132402755762 -2.197654170330387 0 0 0
9576 1 2 0 18.734655928218864 16.904813347497765 -2.2077205542470106 0 0 0
6800 1 1 0 22.53800966395564 17.254500649013938 -1.6471060162168232 0 0 0
9588 1 2 0 22.33972170362712 18.810403335079197 -2.218666685726698 0 0 0
9716 1 2 0 21.394919238220087 21.359508423324097 -2.1982270041541403 0 0 0
6879 1 1 0 22.611493094375966 20.347551472480635 -1.6468543174139 0 0 0
13240 1 2 0 22.52717472624858 17.26218692706396 -2.124480692752049e-06 0 0 0
13319 1 2 0 22.63349771850371 20.29983733767516 -3.427576759857582e-06 0 0 0
9587 1 2 0 26.60096472891519 17.423607255152863 -2.194329093113275 0 0 0
6847 1 1 0 27.371819233454513 18.80588293559804 -1.6470831443771665 0 0 0
9665 1 2 0 28.935154102640247 18.87042618837086 -2.2022868132708404 0 0 0
9717 1 2 0 24.071079200043144 20.92167549055505 -2.1883193985079936 0 0 0
6899 1 1 0 25.58008814206329 21.341141781512967 -1.6454893692283428 0 0 0
9666 1 2 0 26.640716335286047 20.19400693300875 -2.2110091782445807 0 0 0
6853 1 1 0 34.89660334102442 17.46075411224258 -1.6448001464173838 0 0 0
6848 1 1 0 30.498383873408002 18.997923753897943 -1.6461779334069235 0 0 0
9663 1 2 0 31.222696303809798 17.564137396245386 -2.1732910631022526 0 0 0
9675 1 2 0 34.79174259386646 19.00835388070625 -2.23218988114311 0 0 0
9667 1 2 0 31.11270011636327 20.497564592733866 -2.1577836092144955 0 0 0
6904 1 1 0 32.052325736099306 21.821262673809635 -1.6422192798329327 0 0 0
9753 1 2 0 33.57579537097722 21.443882311582687 -2.1782322780687555 0 0 0
6903 1 1 0 34.86233962506912 20.55942659304162 -1.6479476395181831 0 0 0
9673 1 2 0 36.27598136618308 16.7777382374338 -2.23954563313932 0 0 0
6857 1 1 0 40.27201282769906 17.151683582652336 -1.6477754564049194 0 0 0
9681 1 2 0 40.449735852432696 18.64528811433029 -2.305299835537905 0 0 0
9754 1 2 0 36.18045463343006 21.360707288811128 -2.264239605076779 0 0 0
6908 1 1 0 37.66839752300563 21.65639727542541 -1.6208285735042438 0 0 0
6907 1 1 0 40.17540958908262 20.105149253706916 -1.6308649224874456 0 0 0
9759 1 2 0 38.5966734313037 20.356988601525526 -2.014013096719251 0 0 0
13348 1 2 0 37.494925022535845 21.896347454104806 -6.94717307911061e-07 0 0 0
9680 1 2 0 44.20947744493914 17.275137002186757 -2.2369304643156274 0 0 0
6888 1 1 0 45.56969336170533 18.032319755544336 -1.6456416300503824 0 0 0
9731 1 2 0 45.887836552497475 19.56170728525878 -2.1946668145834285 0 0 0
9760 1 2 0 41.249252727914275 21.1853528818588 -2.2725999288665597 0 0 0
6912 1 1 0 42.6056798848639 21.889231036541346 -1.6438089295504776 0 0 0
9765 1 2 0 43.94434236090194 21.161235584632667 -2.2378163677230516 0 0 0
6911 1 1 0 45.47842379184795 21.06570741890493 -1.6450674827266225 0 0 0
13352 1 2 0 42.5551891297324 21.862126115759146 -1.9794559207806506e-07 0 0 0
9729 1 2 0 46.85604347688171 17.19936440649812 -2.2313453176361056 0 0 0
6887 1 1 0 48.342860102384705 16.8263408487401 -1.6445914022154098 0 0 0
9730 1 2 0 49.47894760379459 17.877075618852803 -2.2301145011253274 0 0 0
6892 1 1 0 50.65940950321785 18.882496173755722 -1.646538227195627 0 0 0
9737 1 2 0 50.436675959118915 20.419682253208393 -2.222388114100077 0 0 0
6933 1 1 0 50.39435236459017 21.97235925526349 -1.6454511783653225 0 0 0
13327 1 2 0 48.38336478474556 16.860742323700304 -8.162997898573496e-08 0 0 0
13373 1 2 0 50.39464309402966 21.954051283401743 -4.3238363983456715e-08 0 0 0
13332 1 2 0 50.65202071683705 18.888682495867062 -6.337967927694663e-07 0 0 0
9735 1 2 0 52.103397517902835 18.3348635794507 -2.2267035552942454 0 0 0
6891 1 1 0 53.480773707818805 17.638327323172945 -1.645590836799293 0 0 0
9736 1 2 0 54.75961903026432 18.512727605486393 -2.2227339727948343 0 0 0
6897 1 1 0 55.939122102100356 19.51943764968765 -1.6461217942888484 0 0 0
9745 1 2 0 55.668743961337235 21.051201515129932 -2.2172608982760575 0 0 0
13331 1 2 0 53.49242178525621 17.62823310018352 -2.2748540241043262e-07 0 0 0
13337 1 2 0 55.9435400302127 19.51975007160148 -3.2719653935458485e-08 0 0 0
9686 1 2 0 58.82331465891802 16.702494981733278 -2.2244584332124955 0 0 0
6898 1 1 0 58.761042960600356 18.24970019672569 -1.6460222264965756 0 0 0
9744 1 2 0 57.38962713826407 18.971230154208254 -2.2221232049820046 0 0 0
9746 1 2 0 60.06756952342194 19.080608095225244 -2.225612399328209 0 0 0
9846 1 2 0 62.73803986871443 19.39961029928386 -2.2277884719793 0 0 0
6963 1 1 0 61.31413755679344 19.997977090398166 -1.6458388840192737 0 0 0
9844 1 2 0 61.15069858346074 21.53151452443515 -2.229707833344236 0 0 0
11883 1 2 0 64.28921787876877 17.243630027598744 -2.230167029242689 0 0 0
8319 1 1 0 64.15325614793292 18.78067182219239 -1.6459158000335212 0 0 0
11903 1 2 0 65.41543854021096 19.67566425214316 -2.226731646836162 0 0 0
8333 1 1 0 66.68034142125362 20.567752668189147 -1.6457380928585572 0 0 0
11921 1 2 0 68.09626114738894 19.958522584179654 -2.2305305440405028 0 0 0
11923 1 2 0 66.55411682609574 22.10199243499021 -2.231220479482795 0 0 0
14773 1 2 0 66.67217414896993 20.559727339290664 -3.5982175849619304e-07 0 0 0
8332 1 1 0 69.50324207544998 19.327491963128395 -1.6457053672040458 0 0 0
11889 1 2 0 69.60561959085382 17.792680756120646 -2.2335101703174156 0 0 0
11922 1 2 0 70.78346821545297 20.188113274793288 -2.2330153360447773 0 0 0
8335 1 1 0 72.05012367030348 21.072577645269103 -1.6453375764909102 0 0 0
11924 1 2 0 73.45995797369721 20.437424154593135 -2.2223470119878908 0 0 0
8315 1 1 0 75.01977816097715 16.825994967458808 -1.6461962933267762 0 0 0
11898 1 2 0 75.16761143287746 18.384975169711108 -2.2113734734837798 0 0 0
8334 1 1 0 74.92908360981204 19.93565901025918 -1.6473278400477513 0 0 0
11925 1 2 0 76.0677389430949 21.009130428775627 -2.2099214005219867 0 0 0
8341 1 1 0 77.39572692871307 21.845278884081534 -1.6445687825834456 0 0 0
11933 1 2 0 78.69361289294123 21.003802954779633 -2.214126963073001 0 0 0
14755 1 2 0 75.01542923674891 16.870301829804 -9.925167594020846e-08 0 0 0
14774 1 2 0 74.94434735927868 19.930776434129328 -2.0192158139494723e-07 0 0 0
14781 1 2 0 77.3373934407083 21.873791909714747 -4.64252308446739e-07 0 0 0
11900 1 2 0 83.54652524066145 16.867870846839754 -1.9094453425230025 0 0 0
8317 1 1 0 80.0670296020065 17.3234843190362 -1.6492515258050573 0 0 0
8321 1 1 0 85.14042354637171 17.119556967713113 -1.5995126817823488 0 0 0
11901 1 2 0 80.27865705280362 18.87746410328506 -2.2127770409162433 0 0 0
8340 1 1 0 80.13861877054715 20.446791476721057 -1.6475052504161078 0 0 0
11934 1 2 0 81.25731185385028 21.55325174181926 -2.2057732406749784 0 0 0
8345 1 1 0 82.74188363282869 22.060356114646105 -1.6396448159637025 0 0 0
11939 1 2 0 83.66917632722904 20.770274122985832 -2.123265467106328 0 0 0
8344 1 1 0 85.12963381884538 20.161470228697944 -1.644431062706111 0 0 0
14757 1 2 0 80.13455425133913 17.37462530369205 -7.9718942105278e-08 0 0 0
14784 1 2 0 85.2265437514451 20.1011434719652 -1.5270609450777117e-07 0 0 0
11862 1 2 0 89.61139392418372 17.117946701673947 -2.2581828792329355 0 0 0
11905 1 2 0 85.43113016557383 18.634257925565652 -2.2504123227622492 0 0 0
8323 1 1 0 90.68339904729322 18.172688332799165 -1.5688896893508641 0 0 0
11908 1 2 0 90.71808633990098 19.66485089801881 -2.2815279028157462 0 0 0
11940 1 2 0 86.15062213626732 21.301484070152952 -2.2659158885729243 0 0 0
8348 1 1 0 90.19403542559702 21.104534883257084 -1.6452871839200156 0 0 0
11944 1 2 0 88.67533491789679 21.26217422228443 -2.2201281326173516 0 0 0
8349 1 1 0 87.42077157756383 22.13978537929181 -1.6436663581343256 0 0 0
14763 1 2 0 90.24053702462498 18.411140712325377 -1.3047206408782305e-07 0 0 0
11878 1 2 0 94.65643089934655 16.725615483260043 -2.2326751390364055 0 0 0
11906 1 2 0 92.11715091638254 17.35661585149664 -1.690206031837364 0 0 0
8322 1 1 0 93.67819570260714 17.889994741216874 -1.5639444250652 0 0 0
11907 1 2 0 93.59928732518641 19.38033962492196 -2.27955947075522 0 0 0
8330 1 1 0 94.21246060445928 20.784767055722476 -1.647944901001925 0 0 0
11919 1 2 0 93.57961189916435 22.193809990180956 -2.2312733181014686 0 0 0
11918 1 2 0 95.72979948482377 20.648550767665064 -2.246378477952073 0 0 0
14770 1 2 0 94.08534713496323 20.84474654964652 -4.870239640173676e-07 0 0 0
6538 1 1 0 99.04502270379386 19.167636440624896 -1.6026177936857948 0 0 0
9177 1 2 0 98.52668416331203 17.77430922269328 -2.3219444121097075 0 0 0
9175 1 2 0 100.64993953114327 19.209882429651504 -1.8679775911373575 0 0 0
8331 1 1 0 97.08928139086099 21.3015987879884 -1.6426112546553047 0 0 0
9179 1 2 0 98.3318123734917 20.460055392472768 -2.3227230885925074 0 0 0
6536 1 1 0 101.95231955663122 20.171829221599655 -1.5916323118271671 0 0 0
9176 1 2 0 101.658382254671 21.608480230006265 -2.339918210335165 0 0 0
12978 1 2 0 98.68760255535621 19.234891818474217 -1.628111977241828e-07 0 0 0
14771 1 2 0 97.08716388630104 21.2985762343057 -3.9206726440992524e-08 0 0 0
9121 1 2 0 101.97139554036542 16.89512879955068 -2.2855692277704525 0 0 0