LAMMPS data file via write_data, version 2 Aug 2023, timestep = 2408, units = metal

15516 atoms
2 atom types

2.0469005073436293 197.9204956599698 xlo xhi
1.6851343417743638 170.63580581727064 ylo yhi
0 10 zlo zhi

Masses

1 28.085
2 15.999

Atoms # atomic

2817 1 4.378986549777483 2.020446090733761 1.6981648674256067 0 0 0
12104 2 3.5950845146188852 3.390094467431527 1.1324696506980696 0 0 0
12103 2 5.949740788801614 1.9401853648717313 1.1278744080321241 0 0 0
4406 1 7.518222452376935 1.829558941727716 1.6983706690839238 0 0 0
4971 1 2.813843743863438 4.762243282553538 1.698304479846773 0 0 0
15264 2 3.6214011290727064 6.103915324633794 1.127280585729957 0 0 0
4956 1 7.5414570613856835 7.20297786678863 1.6988706914332246 0 0 0
5403 2 4.382480856482721 2.0507449561634976 3.35000026151211 0 0 0
231 1 4.378986356142219 2.020445905977979 5.001835508821487 0 0 0
1820 1 7.518222489321812 1.8295589274781676 5.001629477074338 0 0 0
7557 2 2.8113700515829665 4.728161707886267 3.350000193784624 0 0 0
2385 1 2.813843767589941 4.762243292570027 5.00169571271374 0 0 0
7542 2 7.51725519658328 7.17420002360776 3.350000027658305 0 0 0
2370 1 7.541457103791939 7.202977781924368 5.001129554963777 0 0 0
8225 2 3.595084416039496 3.3900943915946815 5.567530541128543 0 0 0
8224 2 5.949740750180314 1.9401854577650393 5.572125843794136 0 0 0
11385 2 3.621400997684772 6.103915233758005 5.572719643584434 0 0 0
6992 2 7.500109747734782 1.8015767956480473 3.3500000367352682 0 0 0
14021 2 8.360325674033614 3.144502195094963 1.1265195476532115 0 0 0
14578 2 13.045465640653502 3.0373726595076267 1.1150038617575526 0 0 0
4049 1 9.130250050682635 4.502152553680712 1.697914246863279 0 0 0
14022 2 8.272391917467393 5.814686564617382 1.126536805215978 0 0 0
14020 2 10.701934107711068 4.478393082634731 1.1255574470823886 0 0 0
4458 1 12.269267556281395 4.393935216014206 1.6973318024811206 0 0 0
14577 2 13.118509503897776 5.700026819153486 1.119085323160686 0 0 0
7044 2 12.251858445831477 4.372720504384964 3.350000006415865 0 0 0
6635 2 9.158228155362483 4.524756099899695 3.350000065390256 0 0 0
1463 1 9.130250122462282 4.502152482984928 5.0020858837588955 0 0 0
1872 1 12.269267576915336 4.393935230704226 5.002668350685714 0 0 0
10142 2 8.360325696479352 3.144502209569236 5.5734805933801965 0 0 0
10699 2 13.045465631425223 3.037372424720109 5.5849962385401275 0 0 0
10143 2 8.27239196959307 5.814686593635371 5.573463388046098 0 0 0
10141 2 10.701934053669296 4.478393035036976 5.574442700581191 0 0 0
10698 2 13.118509490050377 5.700026691798216 5.58091490112612 0 0 0
4099 1 13.864416949106596 1.708628069767634 1.69646641889088 0 1 0
4457 1 18.777645512302545 4.169020806347007 1.7001965946226605 0 0 0
14576 2 17.830703696935686 2.922623897090348 1.1546292191185779 0 0 0
14573 2 18.064806135663726 5.553382047913471 1.1041840723371539 0 0 0
4459 1 14.00426504804566 6.980454145317521 1.6987263862007744 0 0 0
14574 2 15.576060443382534 6.797437856208331 1.1517113011512528 0 0 0
4456 1 17.15457752748198 6.82563721888215 1.696453086834142 0 0 0
6685 2 13.888293869393403 1.7280021431080286 3.3500000300496575 0 1 0
1513 1 13.864416992603758 1.7086281071903178 5.003533692508093 0 1 0
1871 1 18.77764551847172 4.169020669212107 4.999803556311048 0 0 0
7043 2 18.794851142051762 4.208493409226357 3.350000052676691 0 0 0
7042 2 17.152448323564133 6.797129545872365 3.350000124116141 0 0 0
7045 2 14.037044738815885 7.003999111914893 3.350000038808161 0 0 0
1873 1 14.00426502413897 6.980454174163015 5.0012737932269555 0 0 0
1870 1 17.15457750996532 6.825637217124909 5.003547113287854 0 0 0
10697 2 17.830703606231005 2.922623617895168 5.54537086935197 0 0 0
10694 2 18.064805898081495 5.553382038910034 5.595816175780567 0 0 0
10695 2 15.576060527345222 6.797437880149502 5.548288927392892 0 0 0
14575 2 20.347519519811865 3.9199968264689384 1.1678741003673012 0 0 0
4462 1 21.712035243731528 3.100487354513311 1.7001198672759323 0 0 0
14581 2 23.064310075487263 3.8914960427149956 1.1165341777170232 0 0 0
4461 1 24.41031001361849 4.695541355439073 1.6993973578527855 0 0 0
14016 2 24.39463555848077 6.279729625176316 1.134631298826494 0 0 0
1876 1 21.712035243294586 3.100486945936418 4.999880551499886 0 0 0
7048 2 21.728115934340053 3.10945457899536 3.3500001736001446 0 0 0
7047 2 24.42362842264399 4.727064930832321 3.3500000795552567 0 0 0
1875 1 24.410310213575695 4.695541279647249 5.000602990979822 0 0 0
10696 2 20.34751954728735 3.9199967938580214 5.532126060098154 0 0 0
10702 2 23.064310117127192 3.8914960095529296 5.583466100690928 0 0 0
10137 2 24.394635737165718 6.279729620643669 5.565368935965715 0 0 0
14579 2 25.761450624882528 3.862167940267953 1.1597802358427414 0 0 0
4460 1 27.092470865008256 2.9907975372093327 1.6993608247557528 0 0 0
13995 2 28.475475922329604 3.750943020253402 1.1370296354850533 0 0 0
4035 1 29.843559639623212 4.537606898725283 1.6985964601549983 0 0 0
13994 2 29.828870709272845 6.12184806507763 1.1386933581136913 0 0 0
7046 2 27.082426165668785 2.967711602370888 3.350000098923313 0 0 0
1874 1 27.092470796040224 2.990797696358755 5.000639511200616 0 0 0
6621 2 29.869184298585 4.542162131223569 3.3500000642660503 0 0 0
1449 1 29.843559595700377 4.537606868666503 5.001403746626623 0 0 0
10700 2 25.761450520262724 3.8621679232016937 5.540219854099753 0 0 0
10116 2 28.475475962335906 3.7509430103762416 5.562970482299281 0 0 0
10115 2 29.82887074576733 6.121848182776536 5.561306767352304 0 0 0
13996 2 31.195391762650015 3.716759370530008 1.1358952317901025 0 0 0
4036 1 32.538695100225596 2.881849353267042 1.6986579198884437 0 0 0
13997 2 33.922441812021944 3.6415712136890543 1.1389114379355008 0 0 0
4037 1 35.29850638115433 4.4149665163972465 1.698795365506467 0 0 0
13999 2 35.28363306063906 5.996226202084622 1.1378363677425447 0 0 0
6622 2 32.52357286687726 2.8745113432874434 3.350000038742755 0 0 0
1450 1 32.53869522773771 2.881849416005119 5.001342158243297 0 0 0
6623 2 35.31487539235374 4.416381098119778 3.3499999369484725 0 0 0
1451 1 35.29850630248033 4.414966511135722 5.001204613888959 0 0 0
10117 2 31.19539200098285 3.716759300578836 5.564104854029751 0 0 0
10118 2 33.92244199771161 3.6415712741207904 5.561088505188805 0 0 0
10120 2 35.28363317689972 5.996226099890759 5.5621635283853905 0 0 0
3997 1 38.00697727007985 2.7754300642632916 1.6988126577136862 0 0 0
13934 2 36.65636676944661 3.601185069479447 1.1375977953554837 0 0 0
13935 2 39.39668578943345 3.524183979221333 1.1383311743499895 0 0 0
14905 2 42.14011581428189 3.47240482120236 1.1388920094596477 0 0 0
4688 1 40.77971492542968 4.285843156533907 1.6986937567202656 0 0 0
14906 2 40.760399250058555 5.866454154823941 1.137858282182836 0 0 0
6583 2 37.99297214868355 2.7761456459013854 3.3499999213094376 0 0 0
1411 1 38.00697735883456 2.775430532987957 5.001187003792814 0 0 0
7274 2 40.797140755218855 4.282208381741807 3.3499999693674805 0 0 0
2102 1 40.77971530930206 4.2858430872590985 5.001306199349159 0 0 0
10055 2 36.65636673117093 3.6011851159818242 5.562402164899847 0 0 0
10056 2 39.39668579046778 3.524183845847713 5.561668681946498 0 0 0
11026 2 42.14011584998056 3.4724047627048535 5.5611075455201355 0 0 0
11027 2 40.76039909100063 5.866454076721751 5.562141546376884 0 0 0
4928 1 43.492772450000146 2.6456546308262356 1.6987928592595456 0 0 0
15220 2 44.88945099817683 3.3813578465651943 1.1379110113650297 0 0 0
15222 2 47.64169811390596 3.3210965150447307 1.1402806158271837 0 0 0
4930 1 46.27786740236734 4.133898603988479 1.6985274405108564 0 0 0
15219 2 46.2483145617668 5.714477200181113 1.138046459619887 0 0 0
4927 1 46.23390461692161 7.295192960286514 1.698714186615705 0 0 0
7514 2 43.475659685704755 2.6512421227161385 3.3500000190751162 0 0 0
2342 1 43.49277214535441 2.645654724156378 5.001207111370575 0 0 0
2344 1 46.27786728017205 4.133898551123006 5.001472374563582 0 0 0
7516 2 46.29678353346813 4.127817030664064 3.3500000902712124 0 0 0
7513 2 46.21295785722279 7.2952833184035875 3.349999956151822 0 0 0
2341 1 46.23390480830924 7.295193040566162 5.001285818556548 0 0 0
11341 2 44.88945095712023 3.3813579190241647 5.562088901644902 0 0 0
11343 2 47.64169805298507 3.3210966346402992 5.55971935152736 0 0 0
11340 2 46.248314535837494 5.714477072077602 5.561953617860003 0 0 0
4929 1 48.995619705153025 2.490459929564301 1.6986942161015592 0 0 0
15215 2 50.40032582445779 3.2121286781283263 1.137873263342395 0 0 0
4924 1 51.78959285026917 3.965606618775227 1.6983835264150158 0 0 0
14875 2 53.16425773666886 3.1661394270399876 1.1414732126249518 0 0 0
15216 2 51.74099351665618 5.545492293814968 1.1382805844093469 0 0 0
4925 1 51.72364564585189 7.125946585963497 1.6985796509446867 0 0 0
7515 2 48.97459955273842 2.5014814151193208 3.349999997595635 0 0 0
2343 1 48.99561952592005 2.4904597478554362 5.001305868316319 0 0 0
7510 2 51.8088190564684 3.9558800601218165 3.350000015930228 0 0 0
2338 1 51.789592911099646 3.965606686039256 5.001616367948984 0 0 0
7511 2 51.701216306241996 7.127767669385298 3.3499999985624678 0 0 0
2339 1 51.72364582645349 7.125946534711552 5.001420369894059 0 0 0
11336 2 50.40032576223186 3.212128673857888 5.562126706176851 0 0 0
10996 2 53.164257843197205 3.166139326072307 5.5585268159885866 0 0 0
11337 2 51.74099355554186 5.545492242368283 5.561719436282494 0 0 0
4669 1 54.51521950715245 2.3252945290486644 1.698542803582958 0 0 0
14876 2 55.941289025976864 3.0077416914199766 1.138358633914845 0 0 0
5086 1 57.32246268762483 3.7802444275045675 1.6982995083344534 0 0 0
15420 2 58.73007123660989 3.031208687820306 1.1466168967341692 0 0 0
15418 2 57.22248502640491 5.354532642019463 1.1360920099615612 0 0 0
5084 1 57.21869373974282 6.93209480165181 1.6987225321124715 0 0 0
7255 2 54.49497960153943 2.3454433001814126 3.3499999827957274 0 0 0
2083 1 54.515219515121295 2.32529467007092 5.001457167864899 0 0 0
7672 2 57.34111673965748 3.760092767399306 3.350000084494211 0 0 0
2500 1 57.322462541385256 3.780244420260538 5.001700573209406 0 0 0
7670 2 57.1929928995063 6.939030141445394 3.3500000289426115 0 0 0
2498 1 57.21869365539143 6.932094801927318 5.001277518678684 0 0 0
10997 2 55.94128886339531 3.007741602151716 5.561641251852278 0 0 0
11541 2 58.73007099085041 3.031208798753376 5.553383211158267 0 0 0
11539 2 57.222485072535214 5.35453251491288 5.563908078179368 0 0 0
5087 1 60.08843045646304 2.1950746105944243 1.698523735667687 0 0 0
15421 2 61.53764864618071 2.8397215839096 1.1393764345923274 0 0 0
5089 1 62.93012085397029 3.604211609559261 1.6982961600754038 0 0 0
15425 2 64.35811781376273 2.8711587564545713 1.1592379875020034 0 0 0
15423 2 62.814168711777484 5.177962041878264 1.1327651409918218 0 0 0
5088 1 62.77475009455957 6.755796772218819 1.6987930638902582 0 0 0
7673 2 60.083441958522144 2.2286755494852573 3.3500000379135204 0 0 0
2501 1 60.088430528749996 2.1950746937542016 5.0014762583243035 0 0 0
7675 2 62.94446759259963 3.5781256692180015 3.3500000228972677 0 0 0
2503 1 62.93012079124569 3.604211581429762 5.001703934822636 0 0 0
7674 2 62.741425891340185 6.758118373931935 3.3500000184283283 0 0 0
2502 1 62.77475010691233 6.755796848634484 5.0012070651589635 0 0 0
11542 2 61.53764868525166 2.8397216799661016 5.560623614266057 0 0 0
11546 2 64.3581180411278 2.8711586846670083 5.540762003563206 0 0 0
11544 2 62.81416866420273 5.177962099274332 5.567234861207289 0 0 0
5172 1 65.71464854231138 2.0111931862058183 1.6989294283861693 0 0 0
15429 2 67.20090481278 2.5820864037156 1.1454297524803871 0 0 0
5091 1 68.60551712983076 3.3357126893170803 1.6982067358390411 0 0 0
11991 2 70.05690168472722 2.6129210093097854 1.1687430234260494 0 0 0
5159 1 68.32827016173135 6.4805915944025605 1.7006542282507096 0 0 0
15428 2 68.43758346731626 4.906390831411858 1.130979156893597 0 0 0
15504 2 66.95353429173466 7.29595326614577 1.1511917103934395 0 0 0
15503 2 69.70994591571635 7.23085511654624 1.137534012874764 0 0 0
7758 2 65.71452594411704 2.0520528830541496 3.3500000504145815 0 0 0
2586 1 65.71464854015959 2.0111932244793183 5.0010707333953395 0 0 0
7677 2 68.62882604926747 3.3082898484539855 3.350000058642364 0 0 0
2505 1 68.60551703311756 3.335712706849842 5.001793297114966 0 0 0
7745 2 68.27812936796533 6.460643778093045 3.3499999969264924 0 0 0
2573 1 68.32827027656002 6.4805917451302415 4.9993457313999174 0 0 0
11550 2 67.20090452173223 2.5820864750484183 5.554570311012986 0 0 0
8112 2 70.05690209033638 2.6129208480260573 5.531256912808576 0 0 0
11549 2 68.43758354662026 4.90639094617852 5.5690208292985215 0 0 0
11625 2 66.95353442205938 7.295953252365136 5.548808274736566 0 0 0
11624 2 69.709944994583 7.2308549122549355 5.5624660262700525 0 0 0
2755 1 71.4113392378958 1.7205504712150348 1.7011914511519475 0 0 0
11992 2 72.94961686682433 2.2245849234601853 1.1991529062687352 0 0 0
5090 1 74.38029813682218 2.977162899494737 1.7019888575389406 0 0 0
15427 2 75.8518794703162 2.230090219778475 1.1813357319428983 0 0 0
5153 1 73.8543722484669 6.116045999632555 1.7023849200157204 0 0 0
15426 2 74.14091398255039 4.551187078831805 1.1395219290336478 0 0 0
15496 2 72.4433796045308 6.878480785795817 1.1690071009964003 0 0 0
15494 2 75.13954386803519 7.00126282618085 1.1281701492224039 0 0 0
5341 2 71.38578377972489 1.7631888762512096 3.3499998948868313 0 0 0
169 1 71.41133922116786 1.7205511064557075 4.998808584249868 0 0 0
7676 2 74.44716392679973 2.967571637860722 3.349999896154524 0 0 0
2504 1 74.38029886149964 2.977163005586042 4.998011150289427 0 0 0
7739 2 73.79835440642582 6.071371826091312 3.349999940941486 0 0 0
2567 1 73.85437226365114 6.1160459257673745 4.997614951327883 0 0 0
8113 2 72.94961596944296 2.2245846160635927 5.500847168626784 0 0 0
11548 2 75.8518794461089 2.2300903105572414 5.518664109375357 0 0 0
11547 2 74.14091381916806 4.551187207417407 5.5604779319844395 0 0 0
11617 2 72.4433790620608 6.878481192394564 5.530992674713694 0 0 0
11615 2 75.13954426920114 7.0012632448894205 5.571829607467372 0 0 0
15233 2 78.79273052071669 1.8585707481833575 1.1798499453853373 0 0 0
4937 1 80.40230182600725 2.148097011544137 1.7012895214894774 0 0 0
15229 2 80.98623251231109 3.627606666646251 1.1327888834971562 0 0 0
15230 2 80.26953847655741 6.204608167235757 1.1234466132899785 0 0 0
4935 1 81.42683772753095 5.152415105496048 1.6998640517267085 0 0 0
2351 1 80.4023022570163 2.1480970981182956 4.99871036757476 0 0 0
7523 2 80.3577233385947 2.1510108994844113 3.3500000060803474 0 0 0
7521 2 81.46647942872656 5.117219661533332 3.3500000095975926 0 0 0
2349 1 81.42683799416199 5.152415159348729 5.000135887926997 0 0 0
11354 2 78.79273083314126 1.8585708497056093 5.520150041104696 0 0 0
11350 2 80.98623236348762 3.6276066009335426 5.567211056181174 0 0 0
11351 2 80.269538449378 6.204608217163093 5.576553319554738 0 0 0
13900 2 86.42928697083732 2.716266114210481 1.1321803606825913 0 0 0
14469 2 82.91800083907157 5.723286545568128 1.1620525548901364 0 0 0
4378 1 84.40230818074505 6.320504435561089 1.7001980903119704 0 0 0
3973 1 86.7845065396842 4.258615796573239 1.7002413513662817 0 0 0
13898 2 85.59016687655472 5.286820358057287 1.139348573030846 0 0 0
13899 2 88.27047698469873 4.824805524671353 1.1481754546320408 0 0 0
6559 2 86.81329754972266 4.218475553229053 3.3499999675137877 0 0 0
1792 1 84.40230832766491 6.3205044262052015 4.9998017734741 0 0 0
6964 2 84.36834553234313 6.366651877020807 3.3500000311389684 0 0 0
1387 1 86.78450595051605 4.258615721538654 4.9997585417088874 0 0 0
10021 2 86.42928721613266 2.7162662037451386 5.567819495377816 0 0 0
10590 2 82.91800007321507 5.7232861333282266 5.537947352834188 0 0 0
10019 2 85.59016699429154 5.28682013018491 5.5606513057959965 0 0 0
10020 2 88.27047727630196 4.824805652058294 5.551824507019821 0 0 0
3981 1 92.16640440259076 3.3768404146916864 1.6985636956550298 0 0 0
13915 2 91.75569308416516 1.8488120735019389 1.1349607470194982 0 0 0
13914 2 93.68139315826926 3.873742116274682 1.145972841275669 0 0 0
3980 1 89.75352511929334 5.404928150797299 1.6994955717433384 0 0 0
13912 2 90.98354947893144 4.419182758320599 1.1348507577052624 0 0 0
13913 2 90.08050986896075 6.954129695049941 1.1371186539952671 0 0 0
6567 2 92.19354258605571 3.3575354268204127 3.349999997484578 0 0 0
1395 1 92.1664041106568 3.376840381629555 5.001436273571397 0 0 0
6566 2 89.72445311443485 5.413259391269498 3.349999902044111 0 0 0
1394 1 89.75352511134204 5.404928230425761 5.000504476356656 0 0 0
10036 2 91.75569319306992 1.848811926125076 5.565039196375262 0 0 0
10035 2 93.68139312663257 3.8737419546632235 5.554027145560382 0 0 0
10033 2 90.98354911820556 4.419182867427493 5.565149163621191 0 0 0
10034 2 90.08050992510931 6.95412960785877 5.562881194840603 0 0 0
14911 2 96.43660175067295 3.512962399873405 1.1396870473910636 0 0 0
4948 1 97.64432510342145 2.4983372135718724 1.6993793366457082 0 0 0
15248 2 99.16569789446945 2.981835214322171 1.142520302365623 0 0 0
4692 1 95.16886894556845 4.449813768700746 1.699505122794372 0 0 0
14912 2 95.48855165715698 5.993891165586002 1.1317871197091898 0 0 0
7534 2 97.68156376246206 2.4940199847512026 3.349999941625985 0 0 0
2362 1 97.64432514906481 2.498337044800492 5.000620682471293 0 0 0
7278 2 95.12251837044818 4.4494098570849765 3.3500000588814527 0 0 0
2106 1 95.16886897556465 4.449813821949749 5.000494882051049 0 0 0
11032 2 96.4366016452738 3.5129626176386433 5.560312953069619 0 0 0
11369 2 99.16569809297651 2.981835271083317 5.557479782968951 0 0 0
11033 2 95.48855141114312 5.99389113700775 5.568212874128639 0 0 0
15258 2 3.605965855458287 8.820919389886416 1.1283760778201575 0 0 0
4957 1 4.401884816889117 7.461495934460381 1.6984150709828303 0 0 0
15263 2 5.977435354954674 7.386627251912123 1.1354946789015525 0 0 0
4954 1 2.830894097811178 10.195957158078613 1.6984305765026142 0 0 0
15259 2 3.6686256892136013 11.51721693315961 1.1311200212990242 0 0 0
4959 1 4.525571304665731 12.823713825502152 1.69915469704616 0 0 0
15268 2 6.08406283231797 12.633940238270522 1.121878086648316 0 0 0
4963 1 7.6445918364549375 12.474898249375217 1.6982183128597135 0 0 0
2371 1 4.401884805608977 7.461495895215446 5.001585269781214 0 0 0
7543 2 4.409379942721629 7.491727867973073 3.350000096091103 0 0 0
7540 2 2.820090786640454 10.157367500009029 3.350000170098317 0 0 0
2368 1 2.8308942553241456 10.195957088782293 5.001569867706716 0 0 0
2373 1 4.52557133250115 12.82371376938039 5.000845734272364 0 0 0
7549 2 7.610712343198356 12.43284134960491 3.35000006701232 0 0 0
2377 1 7.644591914757254 12.474898266099494 5.0017820776421 0 0 0
11379 2 3.605966075792601 8.820919420111975 5.571624100907022 0 0 0
11384 2 5.977435288568248 7.386627072030105 5.564505523682636 0 0 0
11380 2 3.6686260420135373 11.517217040233037 5.568880340896647 0 0 0
11389 2 6.084062979082658 12.633940295211529 5.57812227641126 0 0 0
7545 2 4.552172460363096 12.858755279436533 3.350000265252018 0 0 0
15261 2 8.45499047057016 8.465633241617052 1.124407888699633 0 0 0
14019 2 13.25980552606851 8.364259089014407 1.122804055130786 0 0 0
4955 1 9.263125531140828 9.798115365841944 1.6975246152799497 0 0 0
15262 2 8.405280402131833 11.107605568895774 1.119094246116413 0 0 0
14018 2 10.835068386800355 9.751945836240887 1.1211686919328905 0 0 0
4048 1 12.405555541724693 9.681844585472696 1.6989529981614986 0 0 0
13332 2 13.202384142678598 11.033031204125189 1.1527658431081345 0 0 0
2369 1 9.263125552611436 9.79811542230865 5.002475681703153 0 0 0
7541 2 9.300102326789556 9.830331642099738 3.350000129577157 0 0 0
6634 2 12.372399782309177 9.656606336798465 3.3500000572697273 0 0 0
1462 1 12.40555547712525 9.681844635643758 5.00104727608194 0 0 0
11382 2 8.454990490415792 8.465633247201675 5.575592370456692 0 0 0
10140 2 13.259805546790469 8.364259060835204 5.577196174829672 0 0 0
11383 2 8.405280452857841 11.107605504647028 5.580905982728977 0 0 0
10139 2 10.835068382326213 9.75194582933877 5.578831556952984 0 0 0
9453 2 13.202384178866264 11.033031240115346 5.54723436030454 0 0 0
14571 2 17.83085916758553 8.217764711721204 1.097648510920954 0 0 0
4454 1 18.74065224834204 9.466749803105357 1.7002719215275812 0 0 0
14570 2 18.046009115906507 10.892041536918583 1.1747467004494656 0 0 0
3573 1 14.056922056869775 12.344048111805586 1.6986869611467605 0 0 0
13333 2 15.608085534580628 12.223698463059371 1.0963962701575258 0 0 0
4453 1 17.162925930581814 12.211771168450426 1.700709927704149 0 0 0
7040 2 18.728397365500562 9.468318899998 3.350000201550238 0 0 0
1868 1 18.7406522830458 9.466749726348173 4.999728344627343 0 0 0
6159 2 14.085419427257952 12.374033020507376 3.350000066878878 0 0 0
987 1 14.056921865478929 12.3440482182028 5.001313274609547 0 0 0
7039 2 17.116870617385267 12.163987237590876 3.350000250000076 0 0 0
1867 1 17.16292585147978 12.211771160213557 4.999290361224038 0 0 0
10692 2 17.830859324705347 8.21776454387284 5.602351745712134 0 0 0
10691 2 18.046008992685646 10.89204132774451 5.525253648736155 0 0 0
9454 2 15.608085638214902 12.223698539240393 5.603604019614388 0 0 0
14017 2 23.01748669727604 8.686685595239203 1.1191313686205833 0 0 0
4047 1 24.364748220493702 7.861348021091047 1.6998489311726757 0 0 0
14572 2 20.31177772929067 9.224787603581046 1.1803569983016993 0 0 0
4455 1 21.82123377125218 9.719406240967638 1.6995894119222317 0 0 0
14567 2 21.964546700578797 11.295539619570222 1.158377141232301 0 0 0
4451 1 21.90260626367809 12.875785044262354 1.700797101609861 0 0 0
6633 2 24.342513049683433 7.848661605476801 3.350000086556024 0 0 0
1461 1 24.36474830653827 7.861348075146654 5.000151287573101 0 0 0
7041 2 21.887920284729695 9.71559119221729 3.350000143978041 0 0 0
1869 1 21.821233792294777 9.719406228842914 5.000410775764444 0 0 0
7037 2 21.87177947496026 12.870054389616765 3.3500002545511016 0 0 0
1865 1 21.902606243850013 12.875785023320216 4.999203114612219 0 0 0
10138 2 23.017486771283185 8.686685602268307 5.580868906230519 0 0 0
10693 2 20.31177776491205 9.224787730180164 5.519643258294781 0 0 0
10688 2 21.96454685146417 11.29553970546542 5.54162311525837 0 0 0
14014 2 25.745262022956727 8.63838039787941 1.1608389969431059 0 0 0
13993 2 28.47624267901391 8.545759766517605 1.1384664105080857 0 0 0
4034 1 29.8211876275168 7.705983582568987 1.6985676392581497 0 0 0
4046 1 27.138264524873787 9.396568565149142 1.6999457663912378 0 0 0
14015 2 27.13873427350127 10.980291250274304 1.137653102622676 0 0 0
4449 1 27.201898873106842 12.563415767102738 1.6987425664836329 0 0 0
6620 2 29.807980170507104 7.698169259949569 3.3500000162738273 0 0 0
1448 1 29.821187679622284 7.705983508731668 5.001432433419659 0 0 0
6632 2 27.157935557611488 9.416736380407874 3.3500000200805267 0 0 0
1460 1 27.138264539656834 9.396568595258943 5.000054233708825 0 0 0
7035 2 27.166791837419428 12.538517526730677 3.3500000668780547 0 0 0
1863 1 27.20189902337066 12.563415828784667 5.00125747769535 0 0 0
10135 2 25.74526194986323 8.638380404255875 5.539161207240317 0 0 0
10114 2 28.476242742827388 8.545759775692456 5.561533765592011 0 0 0
10136 2 27.1387343706194 10.980291295072865 5.562346999648302 0 0 0
13992 2 31.20424131027512 8.466399626742637 1.1370591095511156 0 0 0
14000 2 33.93224985356301 8.407894401461416 1.1378670793758987 0 0 0
4039 1 35.280692592057335 7.577699863653997 1.698791392245275 0 0 0
4038 1 32.58150576349818 9.235578390256109 1.6984432492350179 0 0 0
14001 2 32.5699308916804 10.81762743345681 1.136924469437248 0 0 0
4713 1 32.59178900257463 12.399761144348636 1.6987838622852567 0 0 0
6625 2 35.26400452310085 7.573546299758679 3.3500000129102276 0 0 0
1453 1 35.28069296070918 7.577699836809813 5.001208574397106 0 0 0
6624 2 32.597621631515715 9.241694920420443 3.3500000018463885 0 0 0
1452 1 32.581505770046505 9.23557844594457 5.0015567297859915 0 0 0
7299 2 32.56894400993095 12.381672571234585 3.3499999156973423 0 0 0
2127 1 32.59178901623565 12.399761117212725 5.00121614432701 0 0 0
10113 2 31.20424132974393 8.46639962026904 5.562940941649076 0 0 0
10121 2 33.93224966892639 8.407894511155682 5.562132956815158 0 0 0
10122 2 32.56993095581438 10.81762739925434 5.563075502385212 0 0 0
14002 2 36.66578466990229 8.334160775091643 1.1383906649548259 0 0 0
4683 1 38.04617504014025 9.098987592039757 1.698612074914731 0 0 0
14898 2 39.40150862389811 8.276398731607227 1.139158927820265 0 0 0
4689 1 40.75249803603322 7.447314774888966 1.698807169128655 0 0 0
14907 2 42.14128520969523 8.195779698132993 1.1375999635863443 0 0 0
14894 2 38.02555414366002 10.68047664473133 1.1373064241414583 0 0 0
4680 1 38.02493502936122 12.26245061176605 1.6987118060638406 0 0 0
2097 1 38.04617495501598 9.098987615883704 5.001387828203026 0 0 0
7275 2 40.73428403128234 7.445689544295949 3.3499999918121315 0 0 0
2103 1 40.75249793808379 7.447314685960254 5.001192823114884 0 0 0
7269 2 38.064716223677856 9.101204293251843 3.3500000127205403 0 0 0
7266 2 38.003087414162096 12.253279069020754 3.349999857876652 0 0 0
2094 1 38.02493505611211 12.262450682327044 5.001288199873375 0 0 0
10123 2 36.665784449397776 8.334160711784325 5.561609189092887 0 0 0
11019 2 39.40150881943264 8.276398698514743 5.560840953788115 0 0 0
11028 2 42.14128534225034 8.195779802705864 5.562399940140465 0 0 0
11015 2 38.02555416653141 10.680476409170579 5.562693540204449 0 0 0
4690 1 43.52606961880639 8.952327321586154 1.6985771184612795 0 0 0
14908 2 44.88186539773736 8.126863766253326 1.140869075988007 0 0 0
15218 2 47.625692120546056 8.036285495862295 1.1361158510640352 0 0 0
14897 2 43.499511089146175 10.533874863909064 1.1377524263164622 0 0 0
4682 1 43.48248713326454 12.11593055031559 1.6987147064226755 0 0 0
14890 2 44.868374514986996 12.865433809574917 1.1362074027812534 0 0 0
14889 2 47.59859027411489 12.788568332216743 1.141837892212558 0 0 0
2104 1 43.526069502570316 8.952327268855376 5.001422852485963 0 0 0
7276 2 43.54730731066782 8.9519583287328 3.3499999980444137 0 0 0
7268 2 43.46071154618169 12.108501046241225 3.350000015217776 0 0 0
2096 1 43.482487327459836 12.115930467113943 5.001285211329672 0 0 0
11029 2 44.88186535784321 8.1268638293459 5.559131000485703 0 0 0
11339 2 47.62569198292532 8.036285368524913 5.563884106502056 0 0 0
11018 2 43.49951108268546 10.533874938629209 5.562247555146389 0 0 0
11011 2 44.86837401560053 12.865433523776137 5.563792609707881 0 0 0
11010 2 47.59859019407325 12.788568317257887 5.55816202488217 0 0 0
4926 1 49.01292335053631 8.78722455691553 1.6984763449537958 0 0 0
15217 2 50.370601332413855 7.960760473753292 1.14293501971567 0 0 0
14899 2 53.119748406232624 7.855842035949834 1.1329250303319356 0 0 0
14904 2 48.97600698831964 10.368721839776134 1.1379051588724598 0 0 0
4687 1 48.94697517753715 11.950612403277436 1.6986451903798854 0 0 0
14903 2 50.330567462584746 12.702032991886451 1.1343689895001317 0 0 0
14902 2 53.06044045729076 12.60606870208311 1.143386511201289 0 0 0
7512 2 49.03549641282112 8.78521501088666 3.3499999392670974 0 0 0
2340 1 49.0129231938119 8.78722448463481 5.001523673465393 0 0 0
7273 2 48.923764675201056 11.943172553103247 3.3500000308899662 0 0 0
2101 1 48.946975103864865 11.950612350906985 5.001354888834905 0 0 0
11338 2 50.37060124878337 7.960760570381202 5.557065037557259 0 0 0
11020 2 53.11974855916135 7.8558421187380585 5.567075039812705 0 0 0
11025 2 48.97600698880066 10.368721895916233 5.5620947902444655 0 0 0
11024 2 50.33056757797392 12.702032996542048 5.565631157106791 0 0 0
11023 2 53.06044077521445 12.606068515561942 5.556613622219457 0 0 0
4684 1 54.50755722548693 8.604449286420397 1.6981268777067096 0 0 0
14900 2 55.87290981980506 7.784366782578648 1.1455851653314035 0 0 0
15417 2 58.63682809152687 7.6157921660305234 1.1336713783661696 0 0 0
14901 2 54.45307279612683 10.185072940179724 1.1367454244371837 0 0 0
4685 1 54.409340571449015 11.766341842968636 1.6985768944110686 0 0 0
14879 2 55.7888770820144 12.520850798071015 1.1316873682675377 0 0 0
14878 2 58.51512182381955 12.384464324498333 1.1436056207075995 0 0 0
7270 2 54.53177565059672 8.599732906388962 3.3500000301795687 0 0 0
2098 1 54.50755723533039 8.604449173785037 5.001873203202562 0 0 0
7271 2 54.384844499895785 11.753616059066795 3.3500000186270333 0 0 0
2099 1 54.40934045202373 11.766341856591465 5.001423359355803 0 0 0
11021 2 55.872909615410755 7.784366838368564 5.5544148805410885 0 0 0
11538 2 58.63682827841665 7.615792256424402 5.566328667517364 0 0 0
11022 2 54.45307282001547 10.18507292166509 5.563254687205977 0 0 0
11000 2 55.78887700888715 12.520850857904755 5.568312801635377 0 0 0
10999 2 58.51512182510977 12.384464336697407 5.556394449152313 0 0 0
7509 2 59.80884738251346 11.51143290189056 3.350000050655213 0 0 0
5085 1 60.01949582283958 8.370653700582357 1.6982547824483116 0 0 0
15419 2 61.40450557297785 7.576334703370759 1.1473946929016672 0 0 0
15424 2 64.18155230775095 7.468058757462557 1.1357385840667054 0 0 0
15214 2 59.901019689278456 9.944214995918664 1.133323733157701 0 0 0
4923 1 59.850657096752094 11.5214610560313 1.6991744321317674 0 0 0
5164 1 65.36573769563803 11.303628658407874 1.7001682640304723 0 0 0
15212 2 61.24359021328851 12.237255082070721 1.131261945015239 0 0 0
4922 1 62.64861105832009 12.930261941182362 1.6993943818146489 0 0 0
15213 2 63.963874436559855 12.046353476626432 1.1397765550855412 0 0 0
7671 2 60.051762162702225 8.36093524899818 3.3500000335578655 0 0 0
2499 1 60.019495900321274 8.370653702514364 5.001745270783038 0 0 0
2337 1 59.85065713266116 11.521460982425404 5.0008256118473975 0 0 0
7750 2 65.31793711009537 11.268722057252072 3.3499999933036624 0 0 0
2578 1 65.36573756388238 11.303628725676612 4.999831653895021 0 0 0
2336 1 62.648611039870524 12.93026174031239 5.000605616254213 0 0 0
11540 2 61.40450572287162 7.576334619695142 5.552605230810799 0 0 0
11545 2 64.18155184703737 7.4680585287432955 5.564261384233649 0 0 0
11335 2 59.90101968218633 9.94421504749477 5.566676303539276 0 0 0
11333 2 61.24359042892975 12.237255239992091 5.56873809986589 0 0 0
11334 2 63.963874474913524 12.04635343812683 5.560223350087584 0 0 0
7508 2 62.68473126453156 12.933346195680196 3.350000015561396 0 0 0