LAMMPS data file via write_data, version 2 Aug 2023, timestep = 2509, units = metal

15696 atoms
2 atom types

2.0036947711270443 198.6253748451316 xlo xhi
1.6862369958091135 171.93311675898292 ylo yhi
0 10 zlo zhi

Masses

1 28.085
2 15.999

Atoms # atomic

13454 2 4.0054988829243765 2.5806964846050344 1.1260838836410254 0 0 0
3573 1 3.2513888581247503 3.955845095538269 1.6981800684029624 0 0 0
13452 2 4.086507425717686 5.274979470789452 1.1254550752369625 0 0 0
3574 1 4.888980055459978 6.614167638935346 1.6977433776986917 0 0 0
13455 2 6.458674269294326 6.519427251545792 1.1275612285976786 0 0 0
6189 2 3.241647911363812 3.932114079057857 3.3499999388454635 0 0 0
957 1 3.251388921218167 3.9558451522894322 5.001819731855787 0 0 0
6190 2 4.899893606944438 6.65044516975932 3.349999786753957 0 0 0
958 1 4.888980163934793 6.614167736253038 5.0022562823707295 0 0 0
9530 2 4.005498686440322 2.5806967701921333 5.573916142152386 0 0 0
9528 2 4.086507569977956 5.274979461121667 5.574544744413838 0 0 0
9531 2 6.458674248265622 6.519427364733241 5.5724383824304295 0 0 0
14820 2 8.712729749498758 2.2900788954028957 1.126230147699848 0 0 0
4534 1 9.546145414371127 3.613018266037668 1.6978754581399282 0 0 0
14818 2 11.113976150886273 3.5179317610130254 1.127234083002118 0 0 0
4533 1 12.681521313978687 3.3893780390822954 1.697182124507975 0 0 0
14819 2 13.426527572533912 2.0164598708303854 1.106156827583686 0 0 0
13457 2 8.766937731216414 4.979609052489015 1.1271364774656296 0 0 0
3575 1 8.023590979699557 6.3642089605505925 1.6981040443279956 0 0 0
14172 2 13.533759716976993 4.698057891178484 1.1227859701971907 0 0 0
7150 2 9.554473415634897 3.6421621104544064 3.34999980446671 0 0 0
1918 1 9.546145414647183 3.613018359279972 5.002124237813457 0 0 0
7149 2 12.666882095831108 3.3689099403585896 3.3499998726116442 0 0 0
1917 1 12.681521329015599 3.3893781362543987 5.002817736243223 0 0 0
6191 2 7.999737612826724 6.337776383050938 3.349999809111118 0 0 0
959 1 8.023590958391585 6.364208954783238 5.001895537162604 0 0 0
10896 2 8.712729571386614 2.29007857098885 5.573769715636171 0 0 0
10894 2 11.113976209088031 3.517931821266092 5.5727657215180555 0 0 0
10895 2 13.426527514883901 2.0164598979990394 5.5938430021046095 0 0 0
9533 2 8.766937640383034 4.979609112249215 5.572863208639849 0 0 0
10248 2 13.533759701996207 4.698057963440954 5.577213688395088 0 0 0
3682 1 19.086691427926056 3.1563119176500467 1.790800677788042 0 0 0
13620 2 17.956864841748185 1.9461085927845119 1.8001063349075608 0 0 0
4062 1 14.393765016205737 6.001994379645806 1.6967949305986763 0 0 0
14174 2 15.952112628963645 5.863759401308386 1.107227183086198 0 0 0
4063 1 17.520384333139752 5.800135954430837 1.694176824776812 0 0 0
13619 2 18.354452596541385 4.48181028473576 1.0810019541334503 0 0 0
14175 2 18.3138301909837 7.144850541287073 1.1225706208235076 0 0 0
1066 1 19.086691456997393 3.1563119903090313 4.909199265361828 0 0 0
1446 1 14.39376500319103 6.001994390620933 5.003204820677995 0 0 0
6678 2 14.413917450708546 6.027008567525168 3.349999949230864 0 0 0
6679 2 17.479243019446084 5.748306947527382 3.3499999954016624 0 0 0
1447 1 17.5203842555749 5.800135971041607 5.00582309498601 0 0 0
9696 2 17.95686464373226 1.9461087755241007 4.899893573800041 0 0 0
10250 2 15.952112553899157 5.863759549994479 5.592772637487988 0 0 0
9695 2 18.354452389173645 4.481810448557219 5.618997965526295 0 0 0
10251 2 18.31383019117322 7.144850656720406 5.577429256204327 0 0 0
6298 2 19.44575986465083 3.586812879803069 3.3499999349890044 0 0 0
13618 2 20.522643257600745 2.6344333519051104 1.0867931994616502 0 0 0
4164 1 22.052166114065283 2.6477492337351225 1.7946255961825535 0 0 0
4165 1 23.58653046274771 5.4888716035154985 1.792775330831858 0 0 0
14314 2 22.51036996085408 4.23853476586302 1.7637352873166803 0 0 0
14316 2 25.032926048187065 4.996574147517801 1.1271714490523577 0 0 0
13623 2 22.8928832347739 6.815958560325979 1.0674152930692395 0 0 0
6780 2 21.88021197402893 2.100980223770669 3.350000036902944 0 0 0
1548 1 22.052165974178426 2.6477491252561234 4.905374597367231 0 0 0
6781 2 23.916760178292648 5.933478386068505 3.3500000578201874 0 0 0
1549 1 23.58653047120736 5.488871602514549 4.907224830541879 0 0 0
9694 2 20.52264325215121 2.6344334263494233 5.613206882130943 0 0 0
10390 2 22.510369982211195 4.238534630683321 4.9362650129610985 0 0 0
10392 2 25.032926291304786 4.99657429722999 5.572828694678292 0 0 0
9699 2 22.89288302770093 6.81595853796493 5.632584710405631 0 0 0
14315 2 23.27094590279259 1.7039155618644588 1.1296324445211323 0 0 0
10391 2 23.270945704222104 1.7039156233399118 5.570367913406644 0 0 0
4583 1 28.62508805791313 2.896452199437594 1.6979136717392531 0 0 0
14317 2 27.59317286900123 4.047089060495097 1.0930337042934508 0 0 0
14883 2 30.17476303225859 3.199380138816464 1.158455838145937 0 0 0
4166 1 26.58133525972684 5.211128944252311 1.7028464750022039 0 0 0
13626 2 27.07052530581766 6.70327170955049 1.1785790825476152 0 0 0
7199 2 28.627668676729087 2.9184191106842956 3.349999983954859 0 0 0
1967 1 28.62508790769153 2.896452374015534 5.002086256368023 0 0 0
6782 2 26.65022892627124 5.112533292461577 3.3500000176523566 0 0 0
1550 1 26.581335195581826 5.211128974715459 4.997153554726729 0 0 0
10393 2 27.59317294797293 4.047089079360357 5.606966343406887 0 0 0
10959 2 30.174763168642148 3.1993802916918894 5.541544222698944 0 0 0
9702 2 27.070525713665077 6.703271901239305 5.5214209734600335 0 0 0
4582 1 31.444205030800546 4.135883137448228 1.7000822956777164 0 0 0
14884 2 32.877664146951616 3.5381094855159096 1.1204104420503194 0 0 0
4865 1 34.3659044743679 3.0845108447228484 1.7009865251351743 0 0 0
14810 2 31.29198764147909 5.690376010553465 1.136203367666246 0 0 0
15244 2 35.468127423857425 4.255021864008651 1.1712750936569223 0 0 0
4864 1 36.48322894741832 5.506369686077361 1.7012814189293664 0 0 0
4525 1 31.02579811591415 7.232199472973752 1.6999689826302629 0 0 0
14808 2 36.16832425824167 7.068395485195661 1.1412993628726356 0 0 0
1966 1 31.444205177165127 4.1358832305931985 4.999917684981308 0 0 0
7481 2 34.44657239057499 3.060647971390716 3.350000055988625 0 0 0
2249 1 34.36590448351407 3.0845109406745004 4.999013486867543 0 0 0
7198 2 31.442607665265243 4.144251104903456 3.350000007329907 0 0 0
7480 2 36.405613425078776 5.526457357714203 3.3499999918225933 0 0 0
2248 1 36.483228846500715 5.506369699812934 4.998718535537787 0 0 0
7141 2 31.057162704063398 7.204238725747916 3.3499999998017023 0 0 0
1909 1 31.02579820348383 7.2321995287602405 5.000030911566912 0 0 0
10960 2 32.87766430007084 3.5381095860643033 5.5795895024997435 0 0 0
10886 2 31.29198768136396 5.690376141402563 5.56379661645266 0 0 0
11320 2 35.468127388685595 4.255021850200458 5.528724903940426 0 0 0
10884 2 36.168324266647566 7.068395507809948 5.558700574397124 0 0 0
15243 2 39.77349675815657 3.19262999778984 1.1359451588299 0 0 0
15242 2 38.01753646574163 5.183737093175625 1.1429005603850535 0 0 0
4863 1 39.52725785108584 4.758375525732172 1.70109223153538 0 0 0
14804 2 40.61926539300392 5.92191149052759 1.1495704826304716 0 0 0
4522 1 41.66192013554605 7.133697954244222 1.6986039273929145 0 0 0
7479 2 39.597297447148094 4.737350873971876 3.350000010624669 0 0 0
2247 1 39.52725802840801 4.758375653448189 4.998907684440046 0 0 0
7138 2 41.62569269273844 7.130387786362273 3.3499998069863843 0 0 0
1906 1 41.66191986526571 7.133697976686372 5.001395875486158 0 0 0
11319 2 39.77349681251306 3.1926299821340924 5.564054930783909 0 0 0
11318 2 38.01753621663245 5.183737231973931 5.557099397799254 0 0 0
10880 2 40.61926541487383 5.9219115870855275 5.550429303716623 0 0 0
15658 2 44.18181943287181 2.1444841048236776 1.1568479772993607 0 0 0
5198 1 45.32486642890341 3.271273588483479 1.6983710840837967 0 0 0
15657 2 46.864743172995674 2.904165417946183 1.1376586504947745 0 0 0
5195 1 44.71719646820613 6.380807838314347 1.6988458789194636 0 0 0
15654 2 45.00891239884004 4.822992067934791 1.1380994676932847 0 0 0
14805 2 43.202959444872256 6.811007862687279 1.131045953346449 0 0 0
7814 2 45.308031185038146 3.255199133830851 3.35000001760762 0 0 0
2582 1 45.32486668299519 3.271273602328735 5.001628895916361 0 0 0
7811 2 44.74688190321942 6.375592460137726 3.349999916439494 0 0 0
2579 1 44.71719670560929 6.380807826018366 5.001154012043581 0 0 0
11734 2 44.181819313736085 2.144484075304582 5.543152005540751 0 0 0
11733 2 46.86474309853885 2.9041654609928953 5.562341280163736 0 0 0
11730 2 45.008912353010224 4.822992170328109 5.561900362941176 0 0 0
10881 2 43.20295935702949 6.811008056570394 5.568953920773574 0 0 0
5199 1 48.41105721105098 2.573137932496873 1.6986399207311391 0 0 0
15652 2 49.537603533583834 3.707566886028708 1.1512205163953362 0 0 0
5131 1 53.75656966940269 4.105513922969266 1.6983756585680703 0 0 0
5194 1 50.67411720343877 4.831910265410416 1.698420319119991 0 0 0
15653 2 50.32296754893745 6.374028847304537 1.1363641417771875 0 0 0
15580 2 52.21407313858691 4.4614118161358745 1.1391791977432724 0 0 0
7815 2 48.42988303061841 2.5920810613301013 3.3500000421220104 0 0 0
2583 1 48.41105721450192 2.573138130646399 5.001360013726659 0 0 0
2515 1 53.75657016113521 4.105513873501791 5.00162434080495 0 0 0
7810 2 50.66402390444024 4.817558428753019 3.349999998233957 0 0 0
2578 1 50.67411705327129 4.831910398531105 5.001579692979429 0 0 0
7747 2 53.77131113724281 4.121004237936219 3.3500000260476996 0 0 0
11728 2 49.537603504307164 3.707566729064824 5.548779521815591 0 0 0
11729 2 50.32296752986062 6.374028761758736 5.563635824716973 0 0 0
11656 2 52.21407256220653 4.461412039279855 5.560821047472674 0 0 0
15581 2 54.118783429870994 2.564728712177754 1.1374134688981752 0 0 0
11657 2 54.11878318822361 2.5647289758459357 5.56258667101887 0 0 0
15570 2 59.49888340369375 3.996844381243896 1.1390593481205413 0 0 0
5202 1 59.78756518429892 2.4394101238576993 1.6987007525504465 0 0 0
5130 1 56.06453015188726 6.315055819245421 1.6985020029915618 0 0 0
15579 2 54.89036987750197 5.231115398269207 1.1506682684372525 0 0 0
15571 2 57.581181242114646 5.876935991735982 1.1382932699788224 0 0 0
5124 1 59.12353193056321 5.536599911516894 1.6981211052181033 0 0 0
7818 2 59.76259711784419 2.4447376714392344 3.3499999645598346 0 0 0
2586 1 59.787565128032746 2.439410080493691 5.001299393757939 0 0 0
7746 2 56.0413319185163 6.304573868465922 3.350000034111796 0 0 0
2514 1 56.06453009765311 6.315055885493124 5.001498114429559 0 0 0
7740 2 59.14747798170765 5.5478045060889105 3.3500000419058495 0 0 0
2508 1 59.12353183250176 5.536599974463641 5.001879077347993 0 0 0
11646 2 59.49888343310785 3.9968445346224764 5.560940774770398 0 0 0
11655 2 54.89036980215991 5.231115318822935 5.5493317416835435 0 0 0
11647 2 57.581181111975184 5.876936113352468 5.561706840002449 0 0 0
15664 2 61.287290068278324 1.948933844844467 1.1383959083555681 0 0 0
15661 2 63.914655509909245 2.652981127220545 1.132989146436672 0 0 0
5200 1 65.04248055488188 3.7599109335763714 1.698579900298045 0 0 0
15255 2 64.72087611461076 5.3037455819525645 1.1383322117895587 0 0 0
15569 2 60.22039780988805 6.6918110985307475 1.1430726216102034 0 0 0
15254 2 62.890122409246075 7.269348537779964 1.1354601733703986 0 0 0
4871 1 64.40476225335107 6.849725727045177 1.6988121773718134 0 0 0
7816 2 65.01503605109872 3.7556024040922944 3.34999999418624 0 0 0
2584 1 65.04248020530567 3.7599109322351367 5.001420112098318 0 0 0
7487 2 64.4314694974488 6.854060126935097 3.3500000365097025 0 0 0
2255 1 64.40476250648754 6.849725706423682 5.001187954307666 0 0 0
11740 2 61.2872902478472 1.9489337663856696 5.561604113827387 0 0 0
11737 2 63.914655611942194 2.6529812111656343 5.567010776220693 0 0 0
11331 2 64.72087604594043 5.303745507215527 5.561667842024388 0 0 0
11645 2 60.22039795196686 6.691811175151634 5.556927455378288 0 0 0
11330 2 62.89012218412655 7.269348676141937 5.564540083988579 0 0 0
15660 2 66.5541216820085 3.3328564335880273 1.1322172734361389 0 0 0
5201 1 68.05169731451262 2.8573078251001904 1.6986581902778846 0 0 0
15583 2 69.23417906449835 3.8983036880552615 1.1288565030503166 0 0 0
5132 1 70.40580706998537 4.954057865077527 1.697587777846389 0 0 0
15440 2 70.03405541152198 6.487767344747755 1.1344572240679907 0 0 0
7817 2 68.05850932662104 2.8713688590744613 3.350000091581904 0 0 0
2585 1 68.05169759733043 2.857307491590981 5.001342027432934 0 0 0
7748 2 70.40741190018845 4.944631329149462 3.350000046416089 0 0 0
11736 2 66.55412163120423 3.3328564927160262 5.567782746428471 0 0 0
11659 2 69.23417882275766 3.89830373313831 5.571143564643484 0 0 0
2516 1 70.40580695560513 4.954057874924197 5.00241230295457 0 0 0
11516 2 70.03405554607791 6.487767246745414 5.5655430149982115 0 0 0
5141 1 73.42044913266757 3.988365606871614 1.700457442432119 0 0 0
15592 2 73.7330375347309 2.449630855328934 1.1324063974832708 0 0 0
15582 2 71.919577791987 4.493096420858694 1.1365394879598498 0 0 0
15591 2 74.65335770942741 4.97832181447267 1.1532492371726528 0 0 0
5140 1 75.83131534500735 6.03330919345184 1.6984446237025221 0 0 0
7757 2 73.39614732984337 4.012051969223158 3.350000059470188 0 0 0
2525 1 73.42044885573506 3.9883655379630647 4.999542836060622 0 0 0
2524 1 75.83131560574071 6.0333091533885215 5.001555409376179 0 0 0
7756 2 75.8754519611964 6.0302323223764445 3.350000046560607 0 0 0
11668 2 73.73303780111505 2.4496309245452577 5.567593797197235 0 0 0
11658 2 71.91957865526506 4.493096230940864 5.563460863343257 0 0 0
11667 2 74.65335770614035 4.978321685809896 5.546750934804577 0 0 0
3875 1 79.56300191678396 1.9854896012873784 1.7016625506340584 0 0 0
13889 2 79.25895335442165 3.5474529039594023 1.1939782818602542 0 0 0
15590 2 77.3519263595244 5.613811093342828 1.1024699665117101 0 0 0
5139 1 78.84220412158791 5.09194033066386 1.6996594009511317 0 0 0
14866 2 80.09220837392252 6.096962064680037 1.196500206706954 0 0 0
4570 1 81.69629716768924 6.131077759585911 1.700671681909872 0 0 0
14214 2 82.49701224490492 4.768256367503818 1.179856934060101 0 0 0
1259 1 79.5630019826442 1.9854894905828648 4.998337392325133 0 0 0
6491 2 79.58745854015781 1.9469028897643261 3.3499999888702825 0 0 0
7755 2 78.77110632143578 5.1006767796199455 3.3499999913714187 0 0 0
2523 1 78.84220434036872 5.091940332646493 5.000340587790208 0 0 0
7186 2 81.69023739626593 6.162472251928005 3.349999778347144 0 0 0
1954 1 81.69629693769778 6.131077747392332 4.9993281414588 0 0 0
9965 2 79.25895321519356 3.5474529577253504 5.506021588001251 0 0 0
11666 2 77.35192619153808 5.613811206041849 5.597530023007507 0 0 0
10942 2 80.09220836529451 6.096961881376603 5.503499554151512 0 0 0
10290 2 82.49701235550417 4.768256109727847 5.520142794541859 0 0 0
14215 2 83.6139398844117 2.355196118302588 1.1999201145341016 0 0 0
4090 1 83.83588158536199 3.924151996208535 1.7040776974499903 0 0 0
14211 2 87.79435699783502 3.630222762576517 1.123322675142319 0 0 0
14213 2 85.26606560589418 4.547276423463496 1.1111272117566229 0 0 0
4091 1 86.79940095608498 4.844670842535896 1.696938347486725 0 0 0
14210 2 87.3077076890439 6.334953723164002 1.1221814161440007 0 0 0
1474 1 83.83588204943923 3.9241521346891717 4.995921850048076 0 0 0
6706 2 83.8961519477049 3.9864329657116246 3.3499998170495187 0 0 0
6707 2 86.82473900260732 4.864987834739186 3.349999739142407 0 0 0
10291 2 83.61393995084902 2.355195765869121 5.50007948976212 0 0 0
10287 2 87.79435702495434 3.630222839135974 5.576676897463759 0 0 0
10289 2 85.26606484102908 4.547276234214337 5.5888724676704475 0 0 0
1475 1 86.79940100013653 4.84467072389148 5.003061291288984 0 0 0
10286 2 87.30770757972351 6.334953727832398 5.577818306059363 0 0 0
6705 2 88.76845935435524 2.3711628861595733 3.349999738541117 0 0 0
4089 1 88.76415146011989 2.398430325527035 1.7002318929093048 0 0 0
13480 2 90.29920321106616 2.7403617676764678 1.1353913414700614 0 0 0
3586 1 91.82785728003456 3.11492779762868 1.699016262319785 0 0 0
13481 2 92.80061600901944 1.8645834575266538 1.1375286119438834 0 0 0
3049 1 92.73781396850525 6.190895100928833 1.6983232042090266 0 0 0
12611 2 92.29443801077907 4.649252920637128 1.1521856643786366 0 0 0
12612 2 94.25889837136208 6.5937844723865355 1.1303943404057315 0 0 0
1473 1 88.7641510672184 2.3984299243169027 4.9997678949216855 0 0 0
6202 2 91.85793742918918 3.141634338521122 3.3499998341699095 0 0 0
970 1 91.82785700435731 3.1149277012456267 5.00098354782686 0 0 0
5665 2 92.70318570382308 6.159393983887695 3.350000016786371 0 0 0
433 1 92.73781365939912 6.1908951521395705 5.001676629604206 0 0 0
9556 2 90.29920371144584 2.740361912185624 5.564608333089198 0 0 0
9557 2 92.80061566511591 1.8645839053103792 5.562471360814012 0 0 0
8687 2 92.29443804109214 4.649252769335571 5.547814222664362 0 0 0
8688 2 94.25889900668056 6.593784529585076 5.569605617524605 0 0 0
14222 2 97.25737830279927 3.1380548211514157 1.1393892515229953 0 0 0
4096 1 97.81161082781371 4.628410887770872 1.6985480143811094 0 0 0
14220 2 96.8231530241786 5.851456703522122 1.132987950924336 0 0 0
14221 2 99.3472964271047 4.997728958297931 1.1333843757961 0 0 0
4095 1 95.77200575356818 7.021007132906278 1.6991506618018555 0 0 0
1480 1 97.81161083553444 4.628410829297407 5.001451898316391 0 0 0
6712 2 97.81257789802602 4.587012506242303 3.3499999454754037 0 0 0
6711 2 95.77180554043518 7.0444000557627025 3.3500000150840163 0 0 0
1479 1 95.77200590188134 7.021007138496182 5.0008492976383545 0 0 0
10298 2 97.25737839619505 3.1380548924561427 5.560610837184633 0 0 0
10296 2 96.82315310878363 5.851456518182441 5.567012044055367 0 0 0
10297 2 99.34729600095116 4.997728796231963 5.5666158222441045 0 0 0
13456 2 4.082342618687999 7.964200247733235 1.1266630577041543 0 0 0
3577 1 3.344516009462683 9.353333670135115 1.6981502344545694 0 0 0
13461 2 4.2390103028534165 10.631416521824137 1.1255756614058847 0 0 0
4069 1 5.039470907450009 11.969727651239664 1.6984367591729113 0 0 0
14183 2 6.611743731254993 11.883973765455288 1.129652355244994 0 0 0
6193 2 3.3209972736395286 9.316607719691303 3.3499997766219214 0 0 0
961 1 3.3445161256753524 9.35333370286576 5.001849150205966 0 0 0
6685 2 5.064638433072018 12.006396321689818 3.349999766022503 0 0 0
1453 1 5.039470869624326 11.969727680456549 5.001562635215561 0 0 0
9532 2 4.082342553853562 7.9642003879687895 5.573336531712413 0 0 0
9537 2 4.239010276883566 10.631416435150316 5.574423788026384 0 0 0
10259 2 6.611743721939624 11.883973839140825 5.570347087978255 0 0 0
13458 2 8.888261971215439 7.665638167741281 1.1270809688328989 0 0 0
13459 2 11.291605212517778 8.875908567136566 1.127790046234638 0 0 0
4065 1 12.861666213253567 8.750472704489015 1.697669298847302 0 0 0
13460 2 8.93288926287639 10.347426097783488 1.1288679692200971 0 0 0
3576 1 9.72283839577269 8.986195328080811 1.6981982643650837 0 0 0
4068 1 8.179473116667726 11.727873546001007 1.6978723934095898 0 0 0
6681 2 12.83724536076092 8.728889587705227 3.349999788253515 0 0 0
1449 1 12.86166613483711 8.750472765908025 5.002330313972717 0 0 0
6192 2 9.741258059425313 9.01871929234164 3.349999798530434 0 0 0
960 1 9.722838332327617 8.986195323568941 5.001801269159646 0 0 0
6684 2 8.149689747925885 11.705322950721033 3.3499997507445674 0 0 0
1452 1 8.17947300022304 11.727873570676326 5.002127018118232 0 0 0
9534 2 8.888261966463181 7.66563823008889 5.572918605541603 0 0 0
9535 2 11.291605129497457 8.875908588239662 5.57220951071585 0 0 0
9536 2 8.932889166390721 10.34742608017342 5.571131477378571 0 0 0
14181 2 9.058503892613704 13.018840332760837 1.1253504304122939 0 0 0
10257 2 9.058503866953744 13.018840350117172 5.574649147980095 0 0 0
14173 2 13.628403378821577 7.378927269957729 1.1271878123145653 0 0 0
10249 2 13.628403284030693 7.378927281981179 5.572811874952759 0 0 0
4064 1 19.141801488718677 8.465006906588847 1.6986976264752627 0 0 0
14177 2 13.697649850989638 10.072107593821581 1.1261645519875185 0 0 0
14813 2 16.097849460509376 11.323523757487994 1.1245593271703511 0 0 0
14176 2 18.385487462303228 9.831156332954988 1.1146504652455826 0 0 0
4532 1 17.66294777129407 11.213206234502426 1.696999808236838 0 0 0
14812 2 13.76371625568104 12.761035337313237 1.1276584543646004 0 0 0
4527 1 14.532415703585647 11.393480178524346 1.6986981768524305 0 0 0
14817 2 18.52621128029838 12.512422084203932 1.1145987930265884 0 0 0
1448 1 19.141801378227765 8.465006857570467 5.001302228923422 0 0 0
6680 2 19.128217212741482 8.487535065257747 3.349999941765172 0 0 0
7148 2 17.651840754606656 11.211764035276389 3.349999962278237 0 0 0
1916 1 17.662947720969424 11.213206254243847 5.0030001014509065 0 0 0
7143 2 14.536680466961238 11.411874748918137 3.3499998337960233 0 0 0
1911 1 14.532415745725517 11.393480159137113 5.001301512658659 0 0 0
10253 2 13.697649663433108 10.072107537434453 5.573835130061032 0 0 0
10889 2 16.097849334863724 11.323523761889815 5.575440467398056 0 0 0
10252 2 18.385487342959376 9.831156467312253 5.5853493844971425 0 0 0
10888 2 13.763716135190288 12.76103544538005 5.572341233681919 0 0 0
10893 2 18.52621109242209 12.512422070261012 5.585401103264907 0 0 0
13624 2 20.695223030241937 8.387724428832323 1.09758567705173 0 0 0
3684 1 22.244151087662594 8.22245520861035 1.6948443612344495 0 0 0
13621 2 23.201218298720114 9.461204557424315 1.1290923052419868 0 0 0
3683 1 23.812723151123503 10.89874348461876 1.7018449583138193 0 0 0
12741 2 22.853667999979834 12.141960459853351 1.1597877676664436 0 0 0
6300 2 22.211546108112223 8.199955502835305 3.349999995846835 0 0 0
6299 2 23.825064765253604 10.867302087886507 3.350000006748074 0 0 0
1067 1 23.812723136519228 10.898743394342567 4.998154988320234 0 0 0
9700 2 20.695222821016927 8.387724547373503 5.602414450644793 0 0 0
1068 1 22.24415109972863 8.222455216940984 5.005155551486582 0 0 0
9697 2 23.20121829756662 9.46120464101438 5.570907678467096 0 0 0
8817 2 22.853668031313312 12.141960421320888 5.540212290866898 0 0 0
3686 1 28.016859030734118 7.954444434847914 1.702901510344793 0 0 0
13627 2 29.564062928078744 7.7701567019282365 1.1369913089396972 0 0 0
13622 2 25.364178567073314 11.138714901232488 1.1422107254183995 0 0 0
3685 1 26.898181433976365 10.82290874913931 1.6989984012804824 0 0 0
13625 2 27.362763590676064 9.348894762214249 1.1018739194935308 0 0 0
13608 2 27.96413222781349 11.948801688784227 1.106091554338092 0 0 0
13609 2 30.524709077649952 12.852496409523303 1.1222687231804 0 0 0
6302 2 28.046469731873696 7.975543011055412 3.3500000042707283 0 0 0
1070 1 28.016859063610855 7.9544443989540365 4.997098497232127 0 0 0
6301 2 26.903976945611188 10.820985951846309 3.3499999866004146 0 0 0
1069 1 26.898181530735386 10.822908748207452 5.001001613430022 0 0 0
9703 2 29.564062873111194 7.770156820526642 5.563008660971081 0 0 0
9698 2 25.364178707196135 11.138714934980712 5.5577892910004945 0 0 0
9701 2 27.36276358438619 9.348894723611455 5.598126101593016 0 0 0
9684 2 27.964132278175367 11.948801735135211 5.593908394072622 0 0 0
9685 2 30.52470900899009 12.852496443091466 5.5777312085511745 0 0 0
14811 2 32.173323493205785 8.278384173827204 1.1241612342440048 0 0 0
4524 1 36.060102795705 8.659908045679758 1.6998002591080228 0 0 0
4526 1 33.08820607418772 9.536287010050533 1.6993371778553796 0 0 0
14797 2 32.5189118037299 10.987691444586122 1.1135504884178573 0 0 0
14809 2 34.62733781094154 9.281040549421304 1.1372093943659443 0 0 0
4517 1 32.04647192798896 12.475862587274987 1.6991086804854518 0 0 0
7140 2 36.11737767123428 8.608856396848292 3.3499998987179693 0 0 0
1908 1 36.06010303186838 8.659908095592892 5.000199588617884 0 0 0
7142 2 33.06338852843065 9.568806179186579 3.349999999718754 0 0 0
1910 1 33.088206039313896 9.536287066443185 5.00066273515252 0 0 0
7133 2 32.020314605610785 12.442674349440175 3.3499998724888336 0 0 0
1901 1 32.046471982507846 12.47586258233343 5.000891209692523 0 0 0
10887 2 32.17332355092129 8.278384169854021 5.575838664916702 0 0 0
10873 2 32.518911897361015 10.987691360728114 5.586449337553773 0 0 0
10885 2 34.62733744910869 9.281040768629362 5.562790477079211 0 0 0
14806 2 41.27477418220215 8.677061878688832 1.146406554550024 0 0 0
14792 2 37.194966142430125 9.776271604982163 1.1546356962765487 0 0 0
4515 1 38.06674785328285 11.111515841605476 1.6983905900641632 0 0 0
14794 2 39.61973008328626 10.854452744576912 1.134610191597693 0 0 0
4523 1 41.07461509158827 10.257347846625038 1.6986184063771033 0 0 0
14807 2 42.25315799661255 11.321411961502339 1.1470642196524172 0 0 0
14793 2 37.53404331339045 12.625499424004882 1.1513144763063463 0 0 0
7131 2 38.0139548392551 11.138026794725503 3.3499998984293113 0 0 0
1899 1 38.06674783806813 11.111515999115799 5.001609233191462 0 0 0
7139 2 41.10014987791176 10.224763030071047 3.3499999185858185 0 0 0
1907 1 41.07461519588987 10.257347701424415 5.001381254228567 0 0 0
10882 2 41.27477410750663 8.677062191325785 5.553593127235807 0 0 0
10868 2 37.194966277854554 9.776271614851547 5.5453640374056645 0 0 0
10870 2 39.61972975102934 10.854453007106587 5.565389608029362 0 0 0
10883 2 42.253158106294144 11.321412011141668 5.552935440887938 0 0 0
10869 2 37.534043356974315 12.62549938218848 5.548685255216421 0 0 0
15655 2 45.85885144753622 7.495318699326792 1.1520122103190786 0 0 0
5196 1 46.93704429108458 8.672463562137748 1.698498509567969 0 0 0
15235 2 46.49153691816302 10.193964804550244 1.139843824640507 0 0 0
4860 1 43.198057139008114 12.599404607601365 1.699172365511557 0 0 0
15236 2 44.78018823886476 12.351126265102787 1.1531995436401912 0 0 0
4857 1 46.26947458293409 11.767847780747827 1.6973774799904573 0 0 0
15237 2 47.54982729744491 12.721640159389509 1.1480996216438828 0 0 0
7812 2 46.9353135659113 8.662177725037118 3.3499998192461673 0 0 0
2580 1 46.937044270361525 8.672463617004075 5.00150133481541 0 0 0
7476 2 43.212593487672315 12.594541510741209 3.3499997915989788 0 0 0
2244 1 43.19805694108222 12.599404766608096 5.000827290619998 0 0 0
7473 2 46.27323939471456 11.773670105823827 3.3499998210805106 0 0 0
2241 1 46.26947460431785 11.767847654063106 5.002622185257219 0 0 0
11731 2 45.858851220829244 7.495318623104964 5.547987536946084 0 0 0
11311 2 46.49153681437695 10.193964811493494 5.560155851107946 0 0 0
11312 2 44.78018818591249 12.351126320669886 5.546800102120899 0 0 0
11313 2 47.54982747273709 12.721640249375293 5.551900015599401 0 0 0
15656 2 48.49025303038512 8.351373755869892 1.1381506447888126 0 0 0
5197 1 50.01552085342855 7.9267267187253765 1.698500684785075 0 0 0
15576 2 51.19542466200723 9.004921990708512 1.1519404284421069 0 0 0
5128 1 52.36653161041597 10.092083013679717 1.6987134231548215 0 0 0
15577 2 53.89947815388277 9.717008720274997 1.1342588124605517 0 0 0
15229 2 52.0668707053954 11.63708812041778 1.1304059105209763 0 0 0
7813 2 50.02852211208226 7.936310466766895 3.350000037157215 0 0 0
2581 1 50.01552063226874 7.926726688107129 5.001499189807089 0 0 0
7744 2 52.35579637537585 10.062405154405957 3.3500000033773825 0 0 0
2512 1 52.36653164797339 10.092083045810012 5.001286506249878 0 0 0
11732 2 48.490253031135765 8.35137377574705 5.5618492253420175 0 0 0
11652 2 51.195424728164696 9.004922166771028 5.548059526097468 0 0 0
11653 2 53.89947773768821 9.717008845180215 5.565741190795859 0 0 0
11305 2 52.06687062177734 11.637088156901473 5.56959401995932 0 0 0
15578 2 55.80268689287448 7.872683725442292 1.133440086323704 0 0 0
5129 1 55.44814563422137 9.412778137917174 1.6978601518453762 0 0 0
15574 2 56.55989994352257 10.567810285746608 1.1534721625801285 0 0 0
15573 2 59.26554086471842 11.121837307066123 1.1340128853948217 0 0 0
5126 1 57.7741908411136 11.613502104469623 1.6990707953818869 0 0 0
7745 2 55.47167873006726 9.431785304413458 3.350000035621605 0 0 0
2513 1 55.448145598767475 9.412778124448927 5.002139917357154 0 0 0
7742 2 57.723874892602474 11.60155554925098 3.3500000104823706 0 0 0
2510 1 57.774190810156824 11.613502091802266 5.00092931027467 0 0 0
11654 2 55.80268676351533 7.872683897204043 5.566559977884778 0 0 0
11650 2 56.55990001207445 10.567810352807706 5.5465278750119 0 0 0
11649 2 59.26554073496665 11.121837302570292 5.565987297712112 0 0 0
5125 1 61.397889575997894 7.767174228329483 1.698189599212228 0 0 0
15256 2 65.53839686819255 7.95135651120592 1.1310934700352795 0 0 0
5127 1 60.81688536537414 10.874573988741991 1.6982747016898525 0 0 0
15572 2 61.200569076377384 9.337317653722653 1.1379703460083366 0 0 0
15575 2 61.84881368041841 12.10200743848894 1.1607142600388052 0 0 0
15585 2 64.5077602519051 12.501192862220698 1.137532456712322 0 0 0
7741 2 61.35643135498303 7.768832989946984 3.3500000369808496 0 0 0
2509 1 61.397889546154936 7.767174148550496 5.001810570196001 0 0 0
2511 1 60.81688538116524 10.874574005069597 5.001725484142624 0 0 0
7743 2 60.857051990140555 10.88427483864496 3.3500000366498583 0 0 0
11332 2 65.53839718495244 7.951356603708724 5.568906664126176 0 0 0
11648 2 61.20056899306905 9.337317754409415 5.562029875361439 0 0 0
11651 2 61.84881355743128 12.102007434381685 5.53928586123692 0 0 0
11661 2 64.5077600808048 12.501192886497133 5.562467784635804 0 0 0
15435 2 68.19120780116911 8.520741703457226 1.1346377539019452 0 0 0
5018 1 66.69821158121198 9.026944931785318 1.6976599282604032 0 0 0
5021 1 69.68845360743906 8.025525392890408 1.6996671840027568 0 0 0
15436 2 66.41018489898805 10.585085211954631 1.1390973351093632 0 0 0
15439 2 70.86136361762208 9.07634624031677 1.1361844990691075 0 0 0
5134 1 66.03084858460592 12.122025699897163 1.6996504047595604 0 0 0
2402 1 66.69821122205332 9.026944919600073 5.002340388326671 0 0 0
7637 2 69.66419055217538 8.016575085297886 3.3500002215570994 0 0 0
2405 1 69.68845314507226 8.025525386249273 5.000332927941482 0 0 0
7634 2 66.68344258770138 9.03797308437896 3.350000038940433 0 0 0
7750 2 66.06530823193044 12.111748930747535 3.3500000693528373 0 0 0
2518 1 66.03084868152474 12.122025612721268 5.0003497885275054 0 0 0
11511 2 68.19120801961083 8.520741725840649 5.565362485170133 0 0 0
11512 2 66.41018490592174 10.585085156366901 5.560902858222647 0 0 0
11515 2 70.86136395443701 9.076346323062554 5.5638159080510565 0 0 0