LAMMPS data file via write_data, version 2 Aug 2023, timestep = 2434, units = metal

15780 atoms
2 atom types

1.9587392444617804 198.9508315728021 xlo xhi
1.8267272296982926 172.66744732463175 ylo yhi
0 10 zlo zhi

Masses

1 28.085
2 15.999

Atoms # atomic

12126 2 4.083118514182491 3.237476994357731 1.1326944203190956 0 0 0
2772 1 2.822990798555717 4.172819676616364 1.6986040846624302 0 0 0
3660 1 5.315547447000917 2.269626050209947 1.6994120276309357 0 0 0
13604 2 6.748368543005975 2.936932364051028 1.1406546077216262 0 0 0
12123 2 3.0133538441033534 5.741839228757088 1.1329675400534998 0 0 0
2771 1 3.2380699677945906 7.305996648110427 1.6984908159861063 0 0 0
142 1 2.8229861213496714 4.172817097879788 5.001400063081253 0 0 0
6290 2 5.339936214136742 2.240939536284761 3.3499989949492868 0 0 0
1030 1 5.315545767370591 2.2696269794488515 5.00058891818728 0 0 0
5402 2 2.8047601683603203 4.2023651163589575 3.3499971041194296 0 0 0
5401 2 3.238094790059739 7.2736752942469 3.35000024399797 0 0 0
141 1 3.2380693468541804 7.305995380055058 5.001510220253324 0 0 0
8181 2 4.083119226056864 3.2374759838390017 5.567305298368884 0 0 0
9659 2 6.748369132540871 2.9369323777456904 5.5593462328167185 0 0 0
8178 2 3.013354192058991 5.7418409531807955 5.567031743613663 0 0 0
5184 1 8.123234271276209 3.7186543470600024 1.6988164711285003 0 0 0
5260 1 10.653194471998443 1.8898692778450628 1.6983455887852372 0 0 0
15692 2 9.450981202876196 2.8913139473483014 1.1283549563010302 0 0 0
15697 2 12.121247162629171 2.4903839484444603 1.140639660091002 0 0 0
15693 2 8.266513095852288 5.291134915221134 1.1381187848931034 0 0 0
5187 1 8.559263010546267 6.843639575613355 1.6983425504026164 0 0 0
15696 2 10.012219669509678 7.456288417239191 1.1340055849825472 0 0 0
15694 2 12.71997047305378 7.294404849231398 1.1376521720075328 0 0 0
7814 2 8.087251812309018 3.735154056023391 3.3499999711621964 0 0 0
2554 1 8.123230439082104 3.718656178523397 5.001181490121582 0 0 0
2630 1 10.653195047727209 1.889868095040047 5.001649533226717 0 0 0
7818 2 13.502139216730763 3.2177361995604676 3.350001278559481 0 0 0
7817 2 8.581018145566794 6.822873858262583 3.3499999682139276 0 0 0
2557 1 8.55926367671928 6.843639197439639 5.001657443416275 0 0 0
11747 2 9.450983240144517 2.8913128809529516 5.571647344484943 0 0 0
11752 2 12.121247244980852 2.4903842167795633 5.559361896063317 0 0 0
11748 2 8.266513623426276 5.291134379480909 5.561882047792412 0 0 0
11751 2 10.01221918417995 7.4562881645803785 5.565994591792312 0 0 0
11749 2 12.71997208154592 7.2944040948510445 5.56234805897138 0 0 0
5188 1 13.53498314055709 3.2101098751579396 1.6985939944502069 0 0 0
2558 1 13.534986926888436 3.2101104700441265 5.00140372976346 0 0 0
7890 2 10.691528639435537 1.8662702795574662 3.35000264004772 0 0 0
15698 2 14.850643522547784 2.350200046149363 1.1358188287200128 0 0 0
15596 2 17.567107142649537 1.999314661048467 1.1461265724452456 0 0 0
5107 1 19.009252343571216 2.6757869656920734 1.6992888166760545 0 0 0
5185 1 13.970983294659542 6.33864015324054 1.6984689916426639 0 0 0
15695 2 13.716051768766983 4.779801637474657 1.1350546075386914 0 0 0
15594 2 19.20836092267454 4.245963323361629 1.1383410478467633 0 0 0
15598 2 15.42270194226008 6.969940582510149 1.1385825673840337 0 0 0
15597 2 18.148476537280782 6.731304443184884 1.139767466412228 0 0 0
7737 2 18.97297136857387 2.6830651454309304 3.3499976390199198 0 0 0
2477 1 19.00924680015938 2.675789965430052 5.000712007225401 0 0 0
2555 1 13.970983732208868 6.3386409508662895 5.00152993324506 0 0 0
7815 2 13.992183060643972 6.330164510490437 3.350002209592648 0 0 0
11753 2 14.85064095252156 2.3502013984767136 5.564181432874866 0 0 0
11651 2 17.567107605274973 1.9993143876120159 5.553872914602532 0 0 0
11750 2 13.716051583179995 4.7798013900740175 5.564945667460205 0 0 0
11649 2 19.208361466179156 4.245962597989023 5.5616594189377855 0 0 0
11653 2 15.422700963093192 6.969939827016443 5.5614165233859785 0 0 0
11652 2 18.148475993834346 6.731304643802113 5.560233210010983 0 0 0
3141 1 24.442227885327092 2.3356050017377865 1.6999975197562038 0 0 0
12794 2 24.498954624109114 3.908592713636309 1.139343400114307 0 0 0
5109 1 19.431107378012133 5.811786169803443 1.6989381912353851 0 0 0
14406 2 20.87418579788991 6.473986594348418 1.1419575533103596 0 0 0
14405 2 23.63901812697454 6.40542209035586 1.139640074730586 0 0 0
4227 1 24.880582127134435 5.436357652615003 1.6984517327830078 0 0 0
4228 1 22.28384739572927 7.206718918024085 1.698816793751451 0 0 0
5771 2 24.382578741302773 2.3072058424306485 3.3500011189490384 0 0 0
511 1 24.442230587036327 2.335607052612903 5.000001164522406 0 0 0
7739 2 19.452789821071324 5.800294653835385 3.3499978043453082 0 0 0
2479 1 19.431108379689828 5.811784967336049 5.00106317663452 0 0 0
1597 1 24.880581144663044 5.436357871149226 5.001548019640944 0 0 0
6858 2 22.24847712305526 7.201981513093749 3.3499989712906224 0 0 0
1598 1 22.283846690268188 7.206720131009962 5.001183904121438 0 0 0
8849 2 24.49895419068157 3.908590008432092 5.560656365047755 0 0 0
10461 2 20.87418662589382 6.4739868131896765 5.558042596736765 0 0 0
10460 2 23.63901835886384 6.40542182612489 5.560360326112215 0 0 0
6857 2 24.92037360046271 5.449628297841044 3.3499995798987 0 0 0
14399 2 30.215245979724724 3.2887199463752026 1.1293383614236898 0 0 0
14403 2 26.379556661801917 5.973561947919201 1.1424521400097725 0 0 0
4225 1 27.829505631314532 6.6255979805024765 1.699244572877131 0 0 0
4222 1 30.44932244341932 4.8454919877855325 1.6985176098714274 0 0 0
14398 2 29.153577371453057 5.756370391166175 1.1454273002842914 0 0 0
6855 2 27.815384621048157 6.605153047537949 3.3499997406675304 0 0 0
1595 1 27.829509153572634 6.625598399560819 5.000755901981905 0 0 0
6852 2 30.470848821644623 4.861537733717684 3.3500004735725906 0 0 0
1592 1 30.44932217304191 4.845494451204849 5.0014810816979285 0 0 0
10454 2 30.21524586067963 3.288717154822676 5.5706620186107365 0 0 0
10458 2 26.379556319058008 5.973561752389077 5.55754868673875 0 0 0
10453 2 29.153577244532553 5.756370293697344 5.5545720097725475 0 0 0
4082 1 35.995394612821514 4.222749706683579 1.7004098020563492 0 0 0
14221 2 35.91283246269251 2.615815482869794 1.1847809014426447 0 0 0
14397 2 31.921167363449907 5.453066472476324 1.1429145770172648 0 0 0
4221 1 33.38302440658607 6.077490178518635 1.697953154241662 0 0 0
14220 2 34.67981484600117 5.135604460812614 1.1526210166844537 0 0 0
1452 1 35.995394829552104 4.222750153169727 4.999589113633386 0 0 0
6851 2 33.402771115243134 6.071754913322368 3.3500004964455026 0 0 0
1591 1 33.38302400605906 6.077490387319115 5.002046026962533 0 0 0
6712 2 35.98813905508929 4.241080031652836 3.350000961617976 0 0 0
10276 2 35.91283218511949 2.615814699314367 5.515218810325697 0 0 0
10452 2 31.921166964131576 5.453066385446044 5.557085803807776 0 0 0
10275 2 34.67981513980242 5.13560460976883 5.5473792087783815 0 0 0
4084 1 41.51906652977739 3.8266608115209437 1.6985538350380749 0 0 0
14224 2 41.45907897069436 2.234687300138082 1.1444047117649214 0 0 0
14218 2 37.434509149892925 4.9023774923126275 1.1478239530436323 0 0 0
4081 1 38.859153150496056 5.612775884975517 1.6983275285864727 0 0 0
14219 2 40.190580883014505 4.722339343534321 1.1547698442226957 0 0 0
13788 2 38.90439774108488 7.208225213042519 1.1496013690952278 0 0 0
6714 2 41.50781962693335 3.8266154963190013 3.349999662964996 0 0 0
1454 1 41.51906486599974 3.8266588093327383 5.001446799658816 0 0 0
6711 2 38.87871222896496 5.6227092900210485 3.350000266154031 0 0 0
1451 1 38.85915383478445 5.6127748399602915 5.001672178035048 0 0 0
10279 2 41.4590793428261 2.234689069507021 5.5555950849353675 0 0 0
10273 2 37.43450918749773 4.902377522030486 5.552176113126736 0 0 0
10274 2 40.190581747020154 4.722339575613219 5.545230019787783 0 0 0
9843 2 38.90439710171403 7.208225546951299 5.550399242698349 0 0 0
4085 1 47.10415556458573 3.6248400749916074 1.6986902232287984 0 0 0
14225 2 47.133634925892096 2.0457537031490935 1.142434462116545 0 0 0
14222 2 42.94979721971831 4.522216861896982 1.1490544038683967 0 0 0
4083 1 44.3620315765829 5.2551556214969395 1.6983131446984348 0 0 0
14223 2 45.72948948702563 4.434990863298557 1.1450479403149956 0 0 0
13429 2 44.3801049515191 6.843126312265682 1.143932515029826 0 0 0
6715 2 47.078013424719096 3.6477494710203495 3.3499994795898442 0 0 0
1455 1 47.1041500870288 3.6248365460436394 5.001310540698294 0 0 0
6713 2 44.369307403374904 5.2420935854509825 3.350002398962372 0 0 0
1453 1 44.36203219117415 5.2551543674095305 5.001684168174774 0 0 0
10280 2 47.1336360726111 2.0457531286831747 5.5575641053418305 0 0 0
10277 2 42.949795627474586 4.5222165858032515 5.550946211446376 0 0 0
10278 2 45.72948970843936 4.434991421138581 5.554951621368058 0 0 0
9484 2 44.38010493731199 6.843125090557013 5.556067718327704 0 0 0
2769 1 52.67957968934678 3.4287358759398625 1.6985570397949856 0 0 0
12120 2 52.5797266904455 1.8590174772590733 1.1372752572401992 0 0 0
12630 2 48.51915981384884 4.336699436796994 1.144644789422688 0 0 0
3053 1 49.941979359978085 5.033009580401163 1.699017185317912 0 0 0
12629 2 49.96584640315321 6.604752396218831 1.135802978811044 0 0 0
12118 2 51.32093355967032 4.248016975664691 1.1413770773227738 0 0 0
5399 2 52.68507517890545 3.464379179904612 3.3499998130763475 0 0 0
139 1 52.67958022513552 3.428733093764621 5.001443356382617 0 0 0
5683 2 49.94584263475732 4.999840678208067 3.3499997312822947 0 0 0
423 1 49.9419803733911 5.033009477473924 5.00098271909099 0 0 0
8175 2 52.57972776255651 1.8590170549198353 5.562723262156589 0 0 0
8685 2 48.51916185766496 4.336700220137053 5.555355617637008 0 0 0
8684 2 49.96584646812441 6.604753202816908 5.564197120921869 0 0 0
8173 2 51.32093259703779 4.248017685736691 5.558622886921095 0 0 0
12119 2 54.122031077925 4.091584006701798 1.1417294957724005 0 0 0
12121 2 56.93310396050669 4.01067128479124 1.1405697804328199 0 0 0
4233 1 58.30568229748552 3.2145435355092724 1.6990498782852501 0 0 0
14413 2 59.749710886095436 3.8853040771825444 1.1472737428817552 0 0 0
2770 1 55.54973763341879 4.78567346366695 1.69873648650804 0 0 0
12122 2 55.59735572892154 6.3560202011617495 1.1335416857666714 0 0 0
6863 2 58.316903009188835 3.2603897114012517 3.3500015734382895 0 0 0
1603 1 58.30568170351779 3.2145438438258815 5.0009483105525545 0 0 0
5400 2 55.54917975604481 4.75001703628602 3.3500004161475845 0 0 0
140 1 55.54973655244702 4.785673221699119 5.001262658991516 0 0 0
8174 2 54.12203193404387 4.091584854158459 5.558270406532869 0 0 0
8176 2 56.93310478246022 4.010670672247611 5.559430170926452 0 0 0
10468 2 59.74971096391641 3.8853038594207665 5.552726346653861 0 0 0
8177 2 55.597355911560264 6.356020768364091 5.566458386942459 0 0 0
15602 2 62.585513651805286 3.970551991477182 1.1348569954155032 0 0 0
5113 1 64.00551100764555 3.274214164132841 1.6993113392191406 0 0 0
15603 2 65.40823768352234 4.0393369033321775 1.154401491318439 0 0 0
5112 1 61.15135274705205 4.637532696646461 1.6992451049260846 0 0 0
15601 2 61.12981487147888 6.2031691688986115 1.1338212786848387 0 0 0
7742 2 61.15446567789553 4.588515506234689 3.3500015130104175 0 0 0
7743 2 64.01259694763446 3.3153485473341937 3.350002226900246 0 0 0
2483 1 64.00551132130681 3.274215381477841 5.000686349112198 0 0 0
2482 1 61.15135280897174 4.637533159362071 5.000753481514626 0 0 0
11657 2 62.5855141846875 3.970551507962843 5.5651426209884205 0 0 0
11658 2 65.4082341638003 4.039335048570277 5.545598888440626 0 0 0
11656 2 61.12981459222086 6.2031680199759025 5.566178594672752 0 0 0
15605 2 68.21255642227752 3.897524318595473 1.1384311423015687 0 0 0
5114 1 69.66152614722361 3.2661973117980527 1.6982014611782807 0 0 0
15606 2 71.00197170376501 4.130212098411073 1.1492796325578472 0 0 0
5116 1 66.85866258635487 4.709710543124922 1.6995239282151708 0 0 0
15609 2 67.04123144912677 6.271882927586919 1.1356414395800571 0 0 0
7744 2 69.67171494568571 3.286004745837925 3.3499986058005544 0 0 0
2484 1 69.66153237785386 3.266201165964996 5.001800130634033 0 0 0
7746 2 66.83555438202002 4.675890627707562 3.34999899827388 0 0 0
2486 1 66.85866622834517 4.709710917023654 5.000476454927319 0 0 0
11660 2 68.21255411537759 3.8975252043575974 5.561568986395301 0 0 0
11661 2 71.0019680556206 4.130209419177596 5.55071920077094 0 0 0
11664 2 67.04123066135548 6.27188387963797 5.564358594739259 0 0 0
14894 2 73.72465873415663 3.7922113370312562 1.114690301767605 0 0 0
4575 1 75.00374299619278 2.8780289927866995 1.699657739590969 0 0 0
14895 2 76.47407139037905 3.4391063179886268 1.159755085237397 0 0 0
5115 1 72.47530382879918 4.748291636530031 1.6978632037342414 0 0 0
15608 2 72.74901988782577 6.323875251695254 1.1770957856853779 0 0 0
7205 2 74.95337395403874 2.8936975525522506 3.3500013170226826 0 0 0
1945 1 75.00374458476146 2.8780293907735426 5.000340834113359 0 0 0
7745 2 72.45401474603942 4.733355722909861 3.3499958064188218 0 0 0
2485 1 72.47530218122823 4.74829192394934 5.002140417782954 0 0 0
10949 2 73.7246550721637 3.7922136404825593 5.585310198869126 0 0 0
10950 2 76.47407161450815 3.43910697545307 5.540244639242267 0 0 0
11663 2 72.74902114668785 6.323878381088971 5.522904273262126 0 0 0
4576 1 77.95817433054766 3.9592702153107626 1.6994863891015013 0 0 0
14897 2 79.17277030524667 2.900917346458585 1.1804441914036938 0 0 0
14416 2 78.04775193235558 5.52377121378131 1.117647181994029 0 0 0
13623 2 82.3049128377398 6.592311441605863 1.1972076454741158 0 0 0
4234 1 78.19796169449462 7.090341790590519 1.6968816299374692 0 0 0
7206 2 78.00772397047969 3.9671942739002817 3.350005931545649 0 0 0
1946 1 77.95817240475557 3.959270850664462 5.0005084520307745 0 0 0
6864 2 78.17806404787306 7.101466609343404 3.349998270276801 0 0 0
1604 1 78.19795985842634 7.090348102830458 5.003119837270065 0 0 0
10952 2 79.17277114197546 2.900918722099378 5.519556170887674 0 0 0
10471 2 78.0477508911697 5.523765910326723 5.582353559782641 0 0 0
9678 2 82.30491296578198 6.5923109062852205 5.50279249796557 0 0 0
4487 1 85.06566692228053 3.3900363235059268 1.6983540392142618 0 0 0
14773 2 84.12172229366061 2.1396350907762445 1.1167976889735252 0 0 0
14772 2 86.65012915561962 3.29392238306035 1.1530757213573937 0 0 0
4488 1 88.23514325766426 3.1662443867530783 1.699289511749674 0 0 0
3671 1 83.86974990761482 6.248588792773129 1.6962121843021816 0 0 0
13624 2 84.34073459325398 4.7649316648083815 1.1079997216220399 0 0 0
13622 2 84.97541092410553 7.340701308763781 1.083861355622822 0 0 0
7117 2 85.08299922510929 3.3533530192051573 3.3500043137642517 0 0 0
1857 1 85.0656731339062 3.3900378264443085 5.0016436673129805 0 0 0
7118 2 88.21373465683709 3.1806767288011897 3.3499997025819566 0 0 0
1858 1 88.23513052709824 3.166243112937316 5.000712913114498 0 0 0
6301 2 83.87875631187173 6.265753898072021 3.349999788085313 0 0 0
1041 1 83.86975704695432 6.24859017255306 5.003787761358075 0 0 0
10828 2 84.12172347961965 2.139636199511344 5.583202885087257 0 0 0
10827 2 86.65012932106552 3.293922456433124 5.546922337272443 0 0 0
9679 2 84.34073460083275 4.764927842327806 5.592000533739823 0 0 0
9677 2 84.97540985251555 7.340703073878415 5.616137276413819 0 0 0
13615 2 94.06329676078306 3.886031570958181 1.1301334020595601 0 0 0
13617 2 89.19341043821605 4.420353747253988 1.1378573716331835 0 0 0
3667 1 90.24822493943383 5.5939453277904985 1.7004057676034998 0 0 0
13616 2 91.8108923702692 5.390087727525679 1.1323541069933205 0 0 0
3666 1 93.38295887186214 5.2962605210681595 1.698427722268969 0 0 0
13610 2 94.3248329136959 6.557278894592994 1.1308392166866934 0 0 0
13618 2 89.73352335152242 7.067948965619051 1.1256009575708907 0 0 0
6297 2 90.259403525004 5.553229504826228 3.349997463724971 0 0 0
1037 1 90.24822579839888 5.593945645247039 4.999595349791319 0 0 0
6296 2 93.3642299851938 5.317676195774579 3.3499981004810344 0 0 0
1036 1 93.38295562841114 5.296263408222069 5.0015736310798165 0 0 0
9670 2 94.06329766666042 3.8860295209605225 5.569867896309916 0 0 0
9672 2 89.1934109645781 4.420353314487769 5.5621432607654056 0 0 0
9671 2 91.81089598405643 5.390087446019841 5.567646646999189 0 0 0
9665 2 94.32483319959039 6.55727901043511 5.56916073880499 0 0 0
9673 2 89.73352127160129 7.067952958935963 5.574398682391965 0 0 0
4022 1 94.67888428187695 2.44562954680258 1.6985351530247057 0 0 0
4023 1 97.8085021303919 2.1032841696579174 1.6979136587444892 0 0 0
14143 2 96.24014800558326 2.2530810305532443 1.1281819039827194 0 0 0
13320 2 98.7425076386353 3.3613337109909303 1.1284600085501735 0 0 0
3460 1 99.73074745317886 4.576981620978956 1.6990808213000141 0 0 0
13319 2 99.10700874859583 6.017057057870831 1.1331052413158946 0 0 0
3459 1 98.4455891100624 7.438656982915061 1.6985211783905054 0 0 0
6652 2 94.6962603406318 2.4333347695384746 3.3500022998354506 0 0 0
1392 1 94.67888767425943 2.44562878225988 5.001463719858124 0 0 0
6653 2 97.77325353328699 2.107059983336281 3.349993756757615 0 0 0
1393 1 97.80850267403268 2.1032875172317023 5.0020899290182195 0 0 0
6090 2 99.74590642177088 4.5741302236671695 3.3499986323657507 0 0 0
830 1 99.73074789788748 4.57697896098924 5.000922096563404 0 0 0
829 1 98.44558832079251 7.438656917514258 5.001479156473668 0 0 0
10198 2 96.24014499912376 2.253081933651571 5.571818330304036 0 0 0
9375 2 98.74251007674057 3.361336613792563 5.571540033761421 0 0 0
9374 2 99.10700862706466 6.017057511179119 5.56689493195188 0 0 0
6089 2 98.42995224061092 7.446605129465605 3.3500000603952103 0 0 0
12125 2 2.033597291136535 8.310839155252483 1.1338153321725746 0 0 0
3228 1 6.044559638409729 8.709797026201064 1.6988075959640185 0 0 0
12124 2 4.671886699841058 7.94745606909707 1.1319609024800765 0 0 0
12958 2 7.350858866386254 7.842025071820041 1.1313158561786643 0 0 0
12959 2 6.130490818756529 10.284016609078423 1.1361498185710364 0 0 0
14227 2 2.349565753807707 13.074113904738445 1.1209860261884064 0 0 0
3229 1 6.294952683150185 11.852562294137027 1.6985698384205279 0 0 0
12961 2 5.044034700578564 12.80678469799573 1.1334032539006054 0 0 0
5858 2 6.04121440324508 8.730041712630548 3.350000271990233 0 0 0
598 1 6.04455969522089 8.709798133128745 5.001192955807636 0 0 0
5859 2 6.291370448032923 11.843574777931224 3.3499984877664115 0 0 0
599 1 6.294951909356702 11.852563101035747 5.001431943414259 0 0 0
8180 2 2.0335982715633656 8.310838645011474 5.566184739052465 0 0 0
8179 2 4.67188678938999 7.947455729561265 5.568038831371969 0 0 0
9013 2 7.350859136262083 7.842024662589114 5.568684337912475 0 0 0
9014 2 6.1304909506207865 10.284016571690305 5.563850106339341 0 0 0
10282 2 2.34956577802927 13.074113608897601 5.5790143429206 0 0 0
9016 2 5.0440350967011405 12.806784242420104 5.566596625478784 0 0 0
12960 2 7.739209219537903 12.474463338922693 1.1306965322199858 0 0 0
9015 2 7.739210590808509 12.474463927100018 5.569303050413365 0 0 0
5186 1 11.414751072063963 8.175918614291406 1.6984525171238674 0 0 0
12955 2 11.531412598772189 9.750370917333719 1.1339489129251346 0 0 0
3227 1 11.706470534046826 11.31951207781492 1.6979085637900977 0 0 0
3230 1 9.145182735213185 13.173666472317164 1.6985898230271896 0 0 0
12956 2 10.450962626554745 12.279905466029131 1.136899605248294 0 0 0
12957 2 13.163777457331825 11.925083742166445 1.1361378210191 0 0 0
7816 2 11.40855187280901 8.185402845107626 3.349999408179799 0 0 0
2556 1 11.414750425981566 8.175919312537372 5.001547778221583 0 0 0
5857 2 11.69777171148042 11.323684129603116 3.3499997915715 0 0 0
597 1 11.706470738824429 11.319512085068316 5.002091679303863 0 0 0
600 1 9.145181658627973 13.173665570419534 5.001409597456815 0 0 0
9010 2 11.531412715200176 9.750370756740972 5.566051571069192 0 0 0
9011 2 10.450963627095316 12.279904813156687 5.563100560920296 0 0 0
9012 2 13.163777453458142 11.925084041937712 5.5638625446900205 0 0 0
5860 2 9.177444766912076 13.174600573105659 3.350001043252343 0 0 0
5108 1 16.85828592144484 7.638018502718632 1.6990249462994138 0 0 0
3233 1 17.21165118321754 10.780268015643275 1.6982658885694848 0 0 0
12967 2 17.043905243171118 9.20806424454758 1.138825143874632 0 0 0
12963 2 18.644738877600847 11.456600411817153 1.136849204150811 0 0 0
3232 1 14.60448732309326 12.56444226001545 1.699456321009296 0 0 0
12965 2 15.903842079359338 11.667104261274236 1.1403110128042058 0 0 0
7738 2 16.840557679617028 7.639902758954149 3.3500007377978345 0 0 0
2478 1 16.858284157311502 7.638018621873501 5.000974561279053 0 0 0
5863 2 17.230105780082926 10.782941281938035 3.3499999161843945 0 0 0
603 1 17.21165087891852 10.780269646571139 5.001734167792662 0 0 0
5862 2 14.605262403816958 12.551010407990471 3.349999850042348 0 0 0
602 1 14.604487040116686 12.564442675234497 5.000543538663983 0 0 0
9022 2 17.043905281328833 9.208063752333695 5.5611749814713205 0 0 0
9018 2 18.64473853857086 11.456599862956782 5.563151020511027 0 0 0
9020 2 15.903842707442731 11.667103214563065 5.55968883221659 0 0 0
14402 2 22.42061570275918 8.77642635677989 1.136846351828167 0 0 0
12962 2 21.38870016212152 11.250534958364183 1.1406491108852184 0 0 0
4224 1 22.669713551495438 10.33279031279333 1.6986939916060637 0 0 0
14400 2 24.127994125688044 10.952828450127713 1.1350891740229174 0 0 0
3231 1 20.080268132231335 12.129705024548713 1.699150833492723 0 0 0
6854 2 22.696251762047122 10.344220409455403 3.3499973136091445 0 0 0
1594 1 22.66971425010104 10.33279062679763 5.001308307933639 0 0 0
5861 2 20.050221612539318 12.122159013624055 3.3500003159163088 0 0 0
601 1 20.08026938898246 12.129705673001268 5.000848862479576 0 0 0
10457 2 22.42061546901036 8.776425749200493 5.563153741141082 0 0 0
9017 2 21.388700748106057 11.250534980057573 5.559350769507544 0 0 0
10455 2 24.127994060308577 10.952828701179923 5.564910664638143 0 0 0
14404 2 27.998835528178354 8.196773964397138 1.1414854522688238 0 0 0
4226 1 28.163003804000372 9.767283999999254 1.699509515354558 0 0 0
14401 2 26.85941996944513 10.654705814924277 1.1394486308258902 0 0 0
14394 2 29.592637262453174 10.44716835857665 1.138298347240545 0 0 0
4223 1 25.58218974899799 11.580693445318806 1.6983350263229162 0 0 0
13599 2 25.80945756696888 13.14349070024383 1.1397822421625783 0 0 0
6853 2 25.565677180835525 11.575172634729238 3.3499970667899244 0 0 0
6856 2 28.18140022914301 9.775319743971497 3.349998061061341 0 0 0
1596 1 28.16300271380337 9.76728445601881 5.000492794951166 0 0 0
10459 2 27.99883512217011 8.196773513285516 5.558514078468294 0 0 0
10456 2 26.859420658424995 10.654705532845464 5.560550905998668 0 0 0
10449 2 29.592637804724582 10.44716856113132 5.561701454457304 0 0 0
1593 1 25.58218837104405 11.580693466157687 5.001668196400028 0 0 0
9654 2 25.809457471130234 13.143490897200572 5.560217672179962 0 0 0
14396 2 33.50436836315792 7.66753774045617 1.1490608042362684 0 0 0
4219 1 31.01740880141914 11.13383847557344 1.6982360227858497 0 0 0
14395 2 32.29799068706343 10.190134490387857 1.1451989041781354 0 0 0
4220 1 33.58608544854718 9.258193363917455 1.6991412912866837 0 0 0
13784 2 35.005528964871175 9.952808844843394 1.140019814767251 0 0 0
3777 1 36.40974126318178 10.677721345283526 1.6985003314034435 0 0 0
13601 2 31.123062741734213 12.72504440488966 1.1488112450962769 0 0 0
13782 2 36.44020287625945 12.275548473999047 1.1522900324854328 0 0 0
6850 2 33.570790099887176 9.251074449691764 3.3500004676832513 0 0 0
6849 2 31.03219793345229 11.153932994544416 3.349999040000744 0 0 0
1589 1 31.01740769797411 11.133838532925195 5.001764491005691 0 0 0
1590 1 33.586084566954 9.258192746535086 5.000857694901817 0 0 0
1147 1 36.40974039426957 10.677722018838596 5.001498788639745 0 0 0
10451 2 33.50436857038266 7.6675373652260905 5.550939196202603 0 0 0
10450 2 32.29799147268649 10.19013420521244 5.554801222549031 0 0 0
9839 2 35.00552995097937 9.952809425932251 5.559980858627374 0 0 0
9656 2 31.123062872553096 12.725044216232284 5.551188500868846 0 0 0
9837 2 36.44020283893958 12.275548067182951 5.547710105007271 0 0 0
6407 2 36.44005000172872 10.688368607499708 3.3500008550085947 0 0 0
3779 1 38.98936674906816 8.802167921406989 1.6985530040909733 0 0 0
13785 2 37.70938321154732 9.753095660503392 1.1464276937493587 0 0 0
13786 2 40.4236178784388 9.473416063796915 1.1434421086317927 0 0 0
3778 1 41.82871654305649 10.203988438897397 1.6987368520991648 0 0 0
13787 2 41.85503937171398 11.793221092032901 1.1445369242083159 0 0 0
6409 2 38.963587713428915 8.79049939750446 3.3500009805801323 0 0 0
1149 1 38.98936853107873 8.80216653911281 5.00144479014969 0 0 0
6408 2 41.847392681427195 10.212612686912976 3.3499990317708175 0 0 0
1148 1 41.82871548954141 10.203988451405877 5.001265219928064 0 0 0
9840 2 37.70938171888512 9.753096037186102 5.553572560495159 0 0 0
9841 2 40.42362124677238 9.473417693510918 5.556557675844628 0 0 0
9842 2 41.85503910076896 11.793219757191832 5.555462772062397 0 0 0
3542 1 44.47448497578665 8.427190170489428 1.6986710044507438 0 0 0
12627 2 45.91546243789751 9.090505742990834 1.1440968793141804 0 0 0
13430 2 43.162387620563905 9.332185829383034 1.1486511076799952 0 0 0
3052 1 47.32642206701306 9.815855925324463 1.6986522441388603 0 0 0
12136 2 47.346468243251785 11.395245098189172 1.138932701470006 0 0 0
2776 1 47.43652810361344 12.972092899661396 1.6987969524923447 0 0 0
6172 2 44.46025339987399 8.432014004612336 3.350000411011237 0 0 0
912 1 44.47448391051795 8.427193004008872 5.001328789574864 0 0 0
5682 2 47.331250909076665 9.79636216953226 3.3500002585674955 0 0 0
422 1 47.32642242256785 9.81585630123285 5.001347562213313 0 0 0
5406 2 47.42635409911037 12.98198241319369 3.349999818459381 0 0 0
146 1 47.43652704491508 12.972093852444166 5.0012028324422175 0 0 0
8682 2 45.91546209543271 9.090505558765084 5.55590292792736 0 0 0
9485 2 43.16238815289384 9.332184993139773 5.5513478926754125 0 0 0
8191 2 47.34646815510238 11.395244690323254 5.561067238123792 0 0 0
3054 1 50.04867604559818 8.175263873924733 1.6986644573730276 0 0 0
12628 2 48.69899103304689 9.014445024215766 1.1440351103154196 0 0 0
12631 2 51.495486640193114 8.818721898449171 1.140420130380285 0 0 0
3061 1 52.92126554092044 9.509510384173211 1.6985446750869206 0 0 0
12645 2 52.936739593848564 11.080283662077276 1.1330631424748576 0 0 0
3549 1 52.99154137541131 12.649607401988549 1.698765455313133 0 0 0
5684 2 50.04356309473143 8.20869229186597 3.3500000507121577 0 0 0
424 1 50.04867592493843 8.175264321539515 5.00133541990431 0 0 0
5691 2 52.92517333509299 9.4742331046736 3.3500009483696642 0 0 0
431 1 52.921264692742135 9.509511107842075 5.001454199809941 0 0 0
6179 2 52.98373827030482 12.6771867671355 3.34999828882434 0 0 0
919 1 52.991540306275745 12.649606418330285 5.001235274277697 0 0 0
8683 2 48.69899148990478 9.01444469802559 5.555964065197755 0 0 0
8686 2 51.49548680169234 8.818721831280852 5.559579783826213 0 0 0
8700 2 52.936739609421046 11.080282238325243 5.5669368995238155 0 0 0
12644 2 54.305625832777224 8.730779176181667 1.1432083916933866 0 0 0
3060 1 55.676417190772845 7.925184656294315 1.698360507263285 0 0 0
12643 2 57.118336371819325 8.586589284453895 1.1391025416096325 0 0 0
4560 1 58.53657943732799 9.302687681827091 1.6982567010559828 0 0 0
14876 2 58.5376584783356 10.869937153691081 1.1298805766881106 0 0 0
4561 1 58.58301007485141 12.435876283437718 1.698622273589152 0 0 0
5690 2 55.67722769560443 7.964917519026849 3.3500022760034214 0 0 0
430 1 55.676416445133086 7.9251843230144345 5.00163699758756 0 0 0
7190 2 58.53254565851352 9.257997324795843 3.350001042115235 0 0 0
1930 1 58.53658037471832 9.302687899674183 5.001741539929127 0 0 0
7191 2 58.58709114356849 12.468745943226871 3.349999606122401 0 0 0
1931 1 58.583010230140424 12.43587733885303 5.001378195510582 0 0 0
8699 2 54.305626677640404 8.73077877822194 5.556791612725659 0 0 0
8698 2 57.118335895798616 8.586588740969754 5.560897756708725 0 0 0
10931 2 58.53765829316584 10.869936159612548 5.5701195541655775 0 0 0
14409 2 57.20915368943239 13.215049060997996 1.137690449203191 0 0 0
10464 2 57.20915163262642 13.2150496000035 5.562309456399416 0 0 0
14875 2 59.95195843733557 8.585394732754931 1.1415763259294083 0 0 0
5111 1 61.309758928990675 7.7591190529404885 1.6989688764335555 0 0 0
15599 2 62.79669086757515 8.33667970122657 1.15214406637824 0 0 0
5110 1 64.1949964656065 9.105165351823132 1.700252099995905 0 0 0
15356 2 64.10197667026944 10.661355753273915 1.130602473232906 0 0 0
14872 2 59.992756381134384 13.146932043383147 1.1340557854138373 0 0 0
14874 2 62.768397783296614 12.961557486875881 1.1280201334572075 0 0 0
4915 1 64.15122623603742 12.22019284466907 1.6974493227000227 0 0 0
15355 2 65.54525627727594 12.933912281437623 1.1096418102319539 0 0 0
7741 2 61.31670364220892 7.816857745878632 3.350000453412809 0 0 0
2481 1 61.30976106739939 7.759119931963036 5.0010311282109665 0 0 0
7740 2 64.19695324731744 9.039846311418946 3.3499957879891786 0 0 0
2480 1 64.19499648242417 9.10516567998169 4.99974969705776 0 0 0
7545 2 64.16347147526348 12.265890502824583 3.350002994969001 0 0 0
2285 1 64.15122778326946 12.220189778342029 5.002548997146472 0 0 0
10930 2 59.95195838477549 8.585394971391711 5.558423569942375 0 0 0
11654 2 62.79668667674179 8.336678113520204 5.547855503715879 0 0 0
11411 2 64.10197601340974 10.66136058575446 5.569397082671192 0 0 0
10927 2 59.9927536684954 13.146931089422091 5.5659437408705905 0 0 0
10929 2 62.768400115914474 12.961555442714664 5.571979890159094 0 0 0
11410 2 65.54525750927927 12.933912969215482 5.590358636976541 0 0 0
15600 2 65.67404241326851 8.530127843125385 1.1430239308824364 0 0 0
11655 2 65.67404257378443 8.530127504459168 5.556977871477193 0 0 0
5117 1 67.10586186202956 7.841758758075918 1.7000405258340747 0 0 0
15610 2 68.53334074794037 8.589425162382945 1.1715463929287844 0 0 0
5119 1 69.97017228441815 9.315555493558124 1.7008748365253006 0 0 0
15353 2 70.02458109709049 10.884530487969949 1.1328980647345128 0 0 0
15354 2 68.31167291104352 12.924302282391762 1.1628751984967938 0 0 0
4913 1 69.81227590425216 12.438325831074422 1.699994302675479 0 0 0