LAMMPS data file via write_data, version 2 Aug 2023, timestep = 2878, units = metal

15828 atoms
2 atom types

2.057128670912077 199.6803302122543 xlo xhi
1.7040725870310343 172.55471217653806 ylo yhi
0 10 zlo zhi

Masses

1 28.085
2 15.999

Atoms # atomic

15079 2 2.984181018551776 4.021027633582892 1.1280008696992732 0 0 0
4676 1 4.5570389336791095 4.048197097764239 1.697901148836443 0 0 0
15080 2 5.354104627792761 2.702143167222032 1.1298391792471916 0 0 0
15078 2 5.3817200372221246 5.382811130011365 1.125517215540899 0 0 0
4678 1 6.238088033549314 6.697768176035896 1.6971745871320059 0 0 0
15074 2 7.811248294310311 6.675533597395634 1.1282525975715185 0 0 0
2038 1 4.557038866354611 4.048197105669212 5.002098652159175 0 0 0
7314 2 4.535858874187289 4.066279983252498 3.3499998543925966 0 0 0
7316 2 6.258790597724843 6.687963458546833 3.3499999295323857 0 0 0
2040 1 6.2380882366363855 6.697768286026975 5.002825248025754 0 0 0
11122 2 2.984181060079908 4.021027672161288 5.57199886884009 0 0 0
11123 2 5.354104631932589 2.7021431107693203 5.570160619268518 0 0 0
11121 2 5.381720006550573 5.38281107741839 5.574482546258084 0 0 0
11117 2 7.811248160647607 6.67553358436516 5.571747135907511 0 0 0
4247 1 10.975771455629012 3.970262460875928 1.6978264592540342 0 0 0
14484 2 10.14892979870453 2.6353750562056915 1.125979612320075 0 0 0
14483 2 10.153164630919298 5.2972950261376415 1.1235834958208555 0 0 0
13760 2 12.550901683162623 4.0371076061629 1.1360546286047517 0 0 0
4674 1 9.3828612097907 6.655235466087893 1.6977254477890424 0 0 0
6885 2 11.005496021016569 3.948699787779718 3.3500000050490315 0 0 0
1609 1 10.975771488438546 3.970262513446611 5.002173355225603 0 0 0
2036 1 9.382861094248831 6.655235584068277 5.002274400543284 0 0 0
7312 2 9.363493889013496 6.66636066150596 3.3499999375348235 0 0 0
10527 2 10.14892974236855 2.6353752992520136 5.574020554894876 0 0 0
10526 2 10.153164742983375 5.297295032167296 5.5764163862908225 0 0 0
9803 2 12.550901502357075 4.037107602119474 5.563945381399615 0 0 0
3760 1 14.126939989406774 4.01829214595353 1.6982909807500919 0 0 0
13762 2 14.82172422155156 2.6178260979833383 1.1271921669458826 0 0 0
13761 2 15.018268909906368 5.316910478400631 1.125486658848052 0 0 0
4773 1 15.900546499611703 6.620488832139144 1.6988376378323267 0 0 0
15214 2 17.494103456784355 6.527703353097767 1.1711584182510413 0 0 0
4771 1 19.085062415569233 6.585779422962567 1.699612129052155 0 0 0
1122 1 14.126940265029113 4.018292122925276 5.001709055929685 0 0 0
6398 2 14.120278212432252 4.049263896949407 3.3499998901465546 0 0 0
7411 2 15.908207997168109 6.622316468707236 3.349999974064035 0 0 0
2135 1 15.90054647510233 6.620488998660641 5.001162328905442 0 0 0
2133 1 19.085062318358805 6.585779331216865 5.000387767000162 0 0 0
7409 2 19.097736990614255 6.5592201185712415 3.3500001379750306 0 0 0
9805 2 14.821724161842935 2.6178262269573 5.572807844502842 0 0 0
9804 2 15.018268697270686 5.316910407380453 5.574513328212438 0 0 0
11257 2 17.494103527070074 6.527703333035585 5.5288415568312965 0 0 0
3418 1 20.737843744371453 3.8922813341691858 1.7016731615606426 0 0 0
13262 2 19.81364826322022 2.59532074391844 1.1610786153409027 0 0 0
13260 2 22.340566332050347 3.8158379757536665 1.1620867868560265 0 0 0
3962 1 23.915265742338285 3.514000944766484 1.703707357599575 0 0 0
14065 2 24.424533597526985 2.0177159972033225 1.1556702401837498 0 0 0
13261 2 19.961200921057312 5.268725654875933 1.133811492424586 0 0 0
14064 2 25.06433087267149 4.618936321293082 1.1605858597275183 0 0 0
6056 2 20.751109341109192 3.8773241446965314 3.3500000308280984 0 0 0
780 1 20.737843914265497 3.892281464728863 4.998326800521758 0 0 0
6600 2 23.887999529938188 3.5254212735606134 3.3500000200067137 0 0 0
1324 1 23.91526571978769 3.514001024729365 4.996292651888168 0 0 0
9305 2 19.813648360826026 2.595320935300726 5.538921599862932 0 0 0
9303 2 22.34056632376485 3.8158379700147007 5.5379132404336575 0 0 0
10108 2 24.42453365305489 2.017716077533599 5.544329775692211 0 0 0
9304 2 19.961200921886217 5.268725744659552 5.566188518304596 0 0 0
10107 2 25.064330902108907 4.618936343316752 5.539414133804216 0 0 0
14742 2 29.72390840740977 2.819220644303552 1.1346539718573396 0 0 0
4423 1 26.389403667896406 5.5088929201799095 1.702062657859001 0 0 0
14737 2 27.86195766947531 4.874293219849388 1.1797915347777184 0 0 0
4427 1 29.38810216190441 4.365420140597523 1.6990437514198327 0 0 0
14741 2 30.622654053155106 5.362208897570293 1.1386765241222545 0 0 0
14735 2 26.244529785504405 7.080051895455241 1.1305974774779393 0 0 0
7061 2 26.392680287158637 5.509643972203533 3.350000131569023 0 0 0
1785 1 26.389403654033 5.508892953185096 4.997937230367932 0 0 0
7065 2 29.38563358371127 4.372526164209083 3.3500001319954618 0 0 0
10785 2 29.723908493943345 2.8192206371923043 5.565345984520392 0 0 0
10780 2 27.86195749383476 4.874293247399631 5.5202085012057545 0 0 0
1789 1 29.38810217922378 4.365420012073281 5.000956091831333 0 0 0
10784 2 30.622654092776198 5.362208898675961 5.561323471084559 0 0 0
10778 2 26.244529757194012 7.080051883010197 5.5694025592995935 0 0 0
4421 1 35.39258779943898 2.133249605516408 1.6984889325538317 0 0 0
14732 2 35.178562946153995 3.697553219335295 1.1336032534351659 0 0 0
4426 1 31.912679122256012 6.284740230595545 1.6983473483284577 0 0 0
14731 2 33.37697860839712 5.697327639368584 1.1345375720990478 0 0 0
4420 1 34.89149284550879 5.253661953502123 1.6965201451974619 0 0 0
13353 2 36.05281416352477 6.335039171309194 1.1356487140785896 0 0 0
7059 2 35.36854980142961 2.1452265816813147 3.349999935704608 0 0 0
1783 1 35.39258758196947 2.1332496099887392 5.001510969859963 0 0 0
7064 2 31.909909764971808 6.264116966425946 3.34999998898771 0 0 0
1788 1 31.9126792328351 6.284740325161306 5.001652683086905 0 0 0
7058 2 34.91117982229358 5.253902115375502 3.350000040196665 0 0 0
1782 1 34.89149307874689 5.253661881051011 5.003479776258651 0 0 0
10775 2 35.17856305184789 3.6975529762959307 5.5663966275158145 0 0 0
10774 2 33.37697850837729 5.697327662278667 5.565462447504237 0 0 0
9396 2 36.05281403243305 6.3350390902098175 5.564351202655672 0 0 0
12092 2 39.493372851222794 2.004724678391557 1.131965978627801 0 0 0
2737 1 40.6673677744562 3.0634890884483297 1.6978493947265292 0 0 0
12091 2 42.132103913634445 2.507870021214897 1.1306241212573962 0 0 0
13351 2 38.74411194511476 6.6503921496128955 1.1328148114755572 0 0 0
3467 1 40.24224967258168 6.1945835753047405 1.6972273421192425 0 0 0
12090 2 40.487292902496776 4.632139145381456 1.1339526079490123 0 0 0
3468 1 37.31580826239938 7.298119887087531 1.6969608302652386 0 0 0
13349 2 41.36942487133797 7.298950548861371 1.1201768978267341 0 0 0
5375 2 40.624399245186346 3.0740238045174997 3.349999930926749 0 0 0
99 1 40.66736780990944 3.0634890353172857 5.002150488054359 0 0 0
6105 2 40.29410233294079 6.188442324428444 3.350000018574029 0 0 0
829 1 40.24224923322339 6.1945836219876 5.002772435020068 0 0 0
6106 2 37.27090604443245 7.305112752832849 3.34999990844588 0 0 0
830 1 37.315808201118465 7.298119730138186 5.0030392352537305 0 0 0
8135 2 39.493372903693306 2.004724680337104 5.568033786066034 0 0 0
8134 2 42.13210366882856 2.507870102191456 5.569375722001915 0 0 0
9394 2 38.744112161394355 6.650392031266757 5.567184976876498 0 0 0
8133 2 40.48729297172592 4.632139011458753 5.566047287778154 0 0 0
9392 2 41.36942491494036 7.298950502873611 5.579823093634015 0 0 0
3012 1 43.59670853206544 1.9552539570430034 1.6980349527075378 0 0 0
12611 2 44.77823032199826 3.007541560464186 1.1333411378028826 0 0 0
3011 1 45.94021478982148 4.081164701612024 1.6973642215350053 0 0 0
12610 2 47.41492147807618 3.5467277024155544 1.130724058122723 0 0 0
12609 2 45.7311649499264 5.648651156943405 1.135655681517439 0 0 0
3013 1 45.50139584699479 7.214308136749626 1.6990002810849696 0 0 0
5650 2 43.63950800641906 1.9434490802823037 3.3499998752622813 0 0 0
374 1 43.59670871633512 1.9552539903474073 5.0019648635667675 0 0 0
5649 2 45.90366255421279 4.093137169834187 3.3499999143857226 0 0 0
373 1 45.940214914975314 4.08116458733189 5.002635677159698 0 0 0
5651 2 45.55019759062267 7.203597763100436 3.349999927474578 0 0 0
375 1 45.50139592494903 7.2143082678513855 5.000999641245937 0 0 0
8654 2 44.77823013267011 3.0075414900945234 5.5666586691590245 0 0 0
8653 2 47.41492167451577 3.546727536526836 5.569275756562756 0 0 0
8652 2 45.73116496453419 5.6486512688697 5.564344199561427 0 0 0
3507 1 48.886247905543506 3.007211129372287 1.6984651216574125 0 0 0
13410 2 50.071413774131855 4.049901067132561 1.1347839445641636 0 0 0
3509 1 54.18782719912039 4.005668618888676 1.69826820822357 0 0 0
3508 1 51.24213347199249 5.108654607217847 1.6977912287759747 0 0 0
13412 2 52.72037172069237 4.570856993532401 1.131724149524908 0 0 0
13406 2 50.97934024582156 6.668514612810905 1.1381645682806047 0 0 0
869 1 48.88624775494044 3.0072108926247685 5.001534792294107 0 0 0
6145 2 48.91625657341148 2.9970033317171523 3.3500000259553198 0 0 0
6147 2 54.19267412409375 3.9980158450624677 3.3499999160475245 0 0 0
871 1 54.187827184531024 4.005668472196488 5.001731661597806 0 0 0
6146 2 51.23016506940208 5.122391225169352 3.3499998716327455 0 0 0
870 1 51.24213376851818 5.108654591418495 5.002208725323995 0 0 0
9453 2 50.07141366185102 4.049900907894401 5.565216027487775 0 0 0
9455 2 52.72037158734836 4.570857099781903 5.568275728458926 0 0 0
9449 2 50.97934016058562 6.668514579050737 5.5618352785746135 0 0 0
13413 2 54.43786038298515 2.450878780092313 1.1322311038758686 0 0 0
12664 2 59.80205147313192 3.377520836909098 1.1318524418529734 0 0 0
5245 1 60.06451013844223 1.8251842116887433 1.698153226059421 0 1 0
13409 2 55.40056502882603 5.007712221105756 1.1332316590556544 0 0 0
3506 1 56.594544720248784 6.032717072107107 1.6978765846367716 0 0 0
12663 2 58.07734830657175 5.49761422312808 1.1322707875260347 0 0 0
3039 1 59.54927743997902 4.932107422311384 1.6976992415354446 0 0 0
7883 2 60.06453269235994 1.827590880285951 3.3499998537180957 0 1 0
2607 1 60.06451030315858 1.8251841536659972 5.001846597391769 0 1 0
6144 2 56.602004588157456 6.037386045620126 3.3499999632965443 0 0 0
868 1 56.59454482058812 6.03271710465618 5.002123242869199 0 0 0
5677 2 59.54519350981328 4.933516884599219 3.3499999049834956 0 0 0
401 1 59.54927726795352 4.93210743731898 5.002300482695295 0 0 0
9456 2 54.43786052425688 2.450878965223877 5.567768813516837 0 0 0
8707 2 59.80205149435698 3.3775208713640867 5.5681474326639355 0 0 0
9452 2 55.400564893610266 5.00771204474862 5.566768174303561 0 0 0
8706 2 58.077348398856586 5.497614206049604 5.567728996983694 0 0 0
3510 1 65.40519357475544 2.768094151863297 1.698359053518734 0 0 0
13415 2 64.19757693062031 1.7601975334402267 1.1340781481265139 0 0 0
12662 2 60.78056303091766 5.914055004032484 1.1335015337416605 0 0 0
12665 2 63.485972843446504 6.419748575302411 1.1310693259194078 0 0 0
3511 1 64.96762876739375 5.881456621888434 1.697040712096976 0 0 0
13414 2 65.18058004474646 4.323459919436521 1.1286749568267307 0 0 0
3040 1 61.99298920844488 6.920773700739799 1.698262732472976 0 0 0
6148 2 65.39219450129153 2.77830303399498 3.3499999836664216 0 0 0
872 1 65.40519373607506 2.7680941016430833 5.001640726264287 0 0 0
6149 2 64.9768021587045 5.8970221666279645 3.349999948467165 0 0 0
873 1 64.96762874499095 5.881456585478269 5.002959097231669 0 0 0
5678 2 61.9951998241216 6.902718744191601 3.3499999195655157 0 0 0
402 1 61.99298914348216 6.920773672469871 5.00173704923042 0 0 0
9458 2 64.1975765446914 1.7601971324173413 5.565921686131594 0 0 0
8705 2 60.78056312887989 5.914055062033259 5.5664982716576 0 0 0
8708 2 63.48597319619023 6.419748473883063 5.568930609361335 0 0 0
9457 2 65.18057997101334 4.323459971648978 5.571324881884772 0 0 0
13416 2 66.8649031647227 2.1963282949816394 1.129047063453358 0 0 0
13421 2 69.5004256918538 2.7634929875564165 1.1321506720198677 0 0 0
3514 1 70.71274787612158 3.7658753792265216 1.6983356648017418 0 0 0
13420 2 70.56959420669651 5.329893769350495 1.1293533983539898 0 0 0
13417 2 66.21069230829205 6.8577654725440915 1.1350344940200903 0 0 0
3513 1 70.41261264630971 6.893883197671437 1.6975784930233035 0 0 0
6152 2 70.68719728285564 3.7798517446192115 3.34999986911323 0 0 0
876 1 70.71274748151355 3.765875273174711 5.001664277038098 0 0 0
6151 2 70.43207388616749 6.914637890096508 3.3499999588410954 0 0 0
875 1 70.41261265351326 6.8938832835829995 5.002421355539481 0 0 0
9459 2 66.86490296803147 2.1963284264269682 5.5709527183837535 0 0 0
9464 2 69.50042599605368 2.763493116373231 5.567849089374806 0 0 0
9463 2 70.56959426746624 5.329893744681382 5.570646414854723 0 0 0
9460 2 66.21069241238084 6.857765415829184 5.564965268495712 0 0 0
13340 2 72.15015821691004 3.1648394905656 1.122137734780786 0 0 0
3462 1 73.6387848712677 2.707153013971984 1.697578266099966 0 0 0
13341 2 74.73809306036989 3.8282065954174747 1.1306361989816482 0 0 0
14810 2 77.37486221716314 4.154696372833956 1.1121733532596547 0 0 0
4474 1 75.96936867826008 4.80106119061648 1.697032243649623 0 0 0
14809 2 75.88473838268585 6.358329520016745 1.1057128870851487 0 0 0
824 1 73.63878441735095 2.707154308551282 5.002421420079433 0 0 0
6100 2 73.6809575198911 2.6931648075264634 3.3499997040420557 0 0 0
7112 2 75.9311693618582 4.826032469484511 3.350000006400845 0 0 0
1836 1 75.96936846468455 4.801061091818972 5.002967679823245 0 0 0
9383 2 72.15015831322457 3.164839559953719 5.577862044103779 0 0 0
9384 2 74.73809291959255 3.8282067860515783 5.569363572845246 0 0 0
10853 2 77.37486263918262 4.154696255136987 5.587826587101574 0 0 0
10852 2 75.88473833928914 6.358329609733508 5.594286973651763 0 0 0
4475 1 78.86789613416047 3.759191504723607 1.6999778618719112 0 0 0
14812 2 79.23717921954658 2.237157700987514 1.1385206515475295 0 0 0
14808 2 83.09682767764234 1.9750561471399224 1.126972964910174 0 0 0
14811 2 79.94211964307509 4.913264244948409 1.1709829633452598 0 0 0
4479 1 81.35958018960942 5.602514228572726 1.699447912905542 0 0 0
14807 2 82.59744354214789 4.657169909434727 1.1342639543036626 0 0 0
14815 2 81.55031709132456 7.151251502588503 1.1255663940661533 0 0 0
7113 2 78.86970241545934 3.7255288780343414 3.35000001183605 0 0 0
1837 1 78.86789616008934 3.7591914458188724 5.000022192346433 0 0 0
7117 2 81.36339902986425 5.633149816702326 3.3500000078621657 0 0 0
1841 1 81.35958041055669 5.602514072413819 5.000551980509337 0 0 0
10855 2 79.23717916534001 2.2371575744887355 5.561479109897803 0 0 0
10851 2 83.09682758610903 1.9750560087757638 5.573026902227482 0 0 0
10854 2 79.94211935161087 4.913264129687521 5.529016956331457 0 0 0
10850 2 82.59744355714328 4.6571697938558865 5.5657359513317015 0 0 0
10858 2 81.55031716841965 7.151251637679707 5.574433551094728 0 0 0
7111 2 83.55689392695795 3.4052822764016377 3.3500000268186017 0 0 0
4473 1 83.58824432866153 3.4578628281625776 1.701676400935276 0 0 0
14806 2 85.10508110974368 3.8182266237004945 1.1520533443326495 0 0 0
15252 2 87.68468230704345 3.5156056447366835 1.1414135940564367 0 0 0
4804 1 88.5435505566437 2.1979641551490374 1.6994594421806726 0 0 0
4807 1 86.49280526642502 4.536659266735085 1.7007503581295542 0 0 0
15258 2 86.62713167318749 6.103531734458168 1.1182517473430234 0 0 0
1835 1 83.58824413569037 3.457862880486102 4.9983234300724275 0 0 0
7442 2 88.4841701477378 2.1536238519107482 3.3499999916359964 0 0 0
2166 1 88.54355066144836 2.197964068182624 5.0005402940562 0 0 0
7445 2 86.53883098906775 4.598520057009154 3.3499999474805473 0 0 0
2169 1 86.49280537061571 4.536659287823542 4.999249589187312 0 0 0
10849 2 85.10508106930165 3.8182265765872483 5.5479466223393175 0 0 0
11295 2 87.68468230773964 3.515605780920223 5.558586277063583 0 0 0
11301 2 86.62713163382374 6.103531797679781 5.581748132244342 0 0 0
15253 2 90.08993377740478 2.461065587247993 1.1521932581332333 0 0 0
4806 1 91.50433815591136 3.1399495569844547 1.7005477287312876 0 0 0
15257 2 92.67839835470143 2.085728675082482 1.1458685641248187 0 0 0
4805 1 91.97816216074825 6.2726714820541485 1.6991032815142697 0 0 0
15256 2 91.65872230161817 4.718747556752515 1.1398330233100828 0 0 0
14818 2 93.50247250419535 6.678451504955198 1.1404018225692372 0 0 0
4481 1 95.03181731249855 7.060473049801016 1.6988998637583412 0 0 0
7444 2 91.54153802370044 3.1936561921065776 3.3499998937902777 0 0 0
2168 1 91.50433790297217 3.1399492982643937 4.999452294727802 0 0 0
7443 2 91.94603461667943 6.267780603317222 3.350000321214541 0 0 0
2167 1 91.97816223656629 6.272671413160063 5.000896282699817 0 0 0
1843 1 95.03181985473387 7.060473033703108 5.001100024003515 0 0 0
11296 2 90.08993383486089 2.461065543023677 5.5478065099209415 0 0 0
11300 2 92.67839825259506 2.0857284999838686 5.554131324544326 0 0 0
11299 2 91.658722283414 4.718747557399672 5.56016704046684 0 0 0
10861 2 93.5024709315704 6.678451169060353 5.559598468521029 0 0 0
14817 2 96.87985933464412 3.213369965442034 1.1380120381187473 0 0 0
4480 1 97.22989861453279 4.756951120733859 1.6984647120973475 0 0 0
14816 2 96.12862249958386 5.904897104569922 1.144373738376558 0 0 0
4019 1 100.29715383048936 5.477256206176155 1.6985592418579112 0 0 0
14157 2 98.76160482997186 5.127863304565533 1.135932251962359 0 0 0
14156 2 100.69593362326138 7.00442798217049 1.135299890713326 0 0 0
7118 2 97.20419332329787 4.7626414001791995 3.3499998524887853 0 0 0
1842 1 97.22989803262543 4.756951514594907 5.001535380449909 0 0 0
6657 2 100.32059143921693 5.473135719685071 3.349999983471566 0 0 0
1381 1 100.29715413749356 5.477256287200095 5.001440717449372 0 0 0
7119 2 95.08040190753685 7.061123610538847 3.350000012340497 0 0 0
10860 2 96.87985934511273 3.2133699184547253 5.5619880052086765 0 0 0
10859 2 96.12862188004938 5.904897558683751 5.5556258940532866 0 0 0
10200 2 98.76160508392888 5.127863327610136 5.564067744488011 0 0 0
10199 2 100.69593354839326 7.004427981951691 5.564700091225311 0 0 0
15081 2 5.480446350941414 8.067406687775453 1.126263015911963 0 0 0
15083 2 3.138079416537003 9.4341850777661 1.126737181730986 0 0 0
4677 1 4.708166262109956 9.42970262022854 1.6976789199175981 0 0 0
15082 2 5.535794690058437 10.762659805292241 1.1279690896365286 0 0 0
4682 1 6.423652962353544 12.056534584451477 1.6974339034025983 0 0 0
7315 2 4.692834932061453 9.441465751093824 3.3499999217871843 0 0 0
2039 1 4.708166328705863 9.429702600871206 5.002320938765823 0 0 0
7320 2 6.432458902073944 12.04365053275697 3.3499998805645577 0 0 0
2044 1 6.423652992840678 12.056534606930885 5.002566134549599 0 0 0
11124 2 5.480446432563207 8.067406516553186 5.573736812227833 0 0 0
11126 2 3.1380794379091674 9.434185007347331 5.573262718822563 0 0 0
11125 2 5.535794685480125 10.7626597348961 5.5720307770244215 0 0 0
15075 2 10.234395694275076 7.968500639443331 1.1251471804622 0 0 0
15076 2 12.67587567015507 9.204649375906156 1.1278696057890831 0 0 0
4675 1 11.106393260065348 9.26681626463984 1.6976141611232058 0 0 0
15077 2 10.343747062502912 10.629647706620098 1.117035929259551 0 0 0
15089 2 7.9843181826739675 11.955993830949238 1.118683268868288 0 0 0
4684 1 9.5496618691087 11.972512358645734 1.6958268053814567 0 0 0
7313 2 11.126587623613876 9.272226161087584 3.34999982547836 0 0 0
2037 1 11.106393287621717 9.2668162579999 5.002385782934501 0 0 0
7322 2 9.540663451617187 11.971516034933794 3.3499999880238547 0 0 0
2046 1 9.549661866815958 11.97251235052132 5.004173090740923 0 0 0
11118 2 10.234395680902137 7.968500681743381 5.574852675838088 0 0 0
11119 2 12.675875525394812 9.204649332711346 5.572130272372635 0 0 0
11120 2 10.343747105042917 10.629647750247475 5.582963929185422 0 0 0
11132 2 7.984318248308566 11.95599375404921 5.5813165336026325 0 0 0
15217 2 15.156383880016918 8.01107070492479 1.130025216836787 0 0 0
4774 1 14.244475555831588 9.297812622934002 1.6980140797246752 0 0 0
15218 2 14.885290642268643 10.737366557700062 1.147288099216179 0 0 0
4775 1 15.734041225032106 12.06049194876843 1.6957056565331035 0 0 0
15219 2 17.276655974356643 11.915003719017367 1.097801659514424 0 0 0
4776 1 18.812618215712316 12.099538682397055 1.699337766019695 0 0 0
7412 2 14.245806552680282 9.29592836442901 3.3499999274615977 0 0 0
2136 1 14.244475574335462 9.297812723672003 5.001985849066435 0 0 0
7413 2 15.71604060673707 12.080886123089108 3.349999946625784 0 0 0
2137 1 15.734041205103361 12.060492003042224 5.004294417738239 0 0 0
7414 2 18.814754999949756 12.091701666586967 3.350000162548514 0 0 0
2138 1 18.81261816614076 12.099538618462091 5.000662188484218 0 0 0
11260 2 15.156383932439462 8.011070609926607 5.569974746852588 0 0 0
11261 2 14.88529061601622 10.73736649874895 5.552711861282272 0 0 0
11262 2 17.276656080037085 11.915003808349857 5.602198317180855 0 0 0
15215 2 19.77000106522922 7.996724336081837 1.1122124264779858 0 0 0
4772 1 20.481357598594098 9.393572084156467 1.7000912013081462 0 0 0
15216 2 19.699673496235274 10.779902125226169 1.1814045480088835 0 0 0
14727 2 22.063975281461897 9.453589817750819 1.1679961250624318 0 0 0
4417 1 23.4416808388272 10.234314250437173 1.6989856807192771 0 0 0
14726 2 24.773287984633228 9.413543345716034 1.1143596366534567 0 0 0
14728 2 23.40678491969068 11.815874932409839 1.1566739178093675 0 0 0
7410 2 20.43567021293016 9.363208475595206 3.3500001315509476 0 0 0
2134 1 20.481357604384613 9.39357222941384 4.9999087491545575 0 0 0
7055 2 23.481278775095344 10.255205249342957 3.3500000061928814 0 0 0
1779 1 23.441680808833265 10.234314286728525 5.0010143605993 0 0 0
11258 2 19.77000105805512 7.996724261698171 5.587787572595099 0 0 0
11259 2 19.699673474403152 10.779901929214914 5.518595454316843 0 0 0
10770 2 22.063975506739514 9.453589784635538 5.532003959528172 0 0 0
10769 2 24.773287994588845 9.413543288589604 5.585640466988275 0 0 0
10771 2 23.406784954072904 11.815874864086494 5.543326086952878 0 0 0
4422 1 26.14398773610437 8.654059994813455 1.6993796234032719 0 0 0
14736 2 27.45123947799587 9.537176522734969 1.157015436064531 0 0 0
4425 1 28.680790980877763 10.532083735184084 1.6986802503442153 0 0 0
14739 2 30.14359631303104 9.975421079984033 1.116839927546328 0 0 0
14052 2 28.436789598381317 12.087075879986536 1.1369021721510384 0 0 0
7060 2 26.139010472696807 8.63671612330344 3.3499998603327548 0 0 0
1784 1 26.143987759675852 8.65406002851006 5.000620572824708 0 0 0
7063 2 28.6770480238569 10.532164081103927 3.3500001167449054 0 0 0
1787 1 28.68079105047424 10.532083631881527 5.001319628567896 0 0 0
10779 2 27.451239303776205 9.537176439652738 5.542984609966162 0 0 0
10782 2 30.143596346093297 9.975421048359271 5.5831601360298935 0 0 0
10095 2 28.436789631039897 12.087076138016734 5.563097911070475 0 0 0
14740 2 31.766006901874444 7.8480102602925665 1.1283045221147041 0 0 0
4424 1 31.60442957253997 9.410553147824224 1.6968329652475311 0 0 0
14738 2 32.84725747110642 10.373597631369448 1.121841990087676 0 0 0
4484 1 34.059067165954374 11.380345800372208 1.697692857243968 0 0 0
14823 2 35.534545588587534 10.8569335754432 1.1346329711567338 0 0 0
14821 2 33.87755925873793 12.926502069805306 1.0953554265529921 0 0 0
7062 2 31.627675446422508 9.41950481769701 3.3499998379651403 0 0 0
1786 1 31.604429574989165 9.41055314887017 5.003167294809451 0 0 0
7122 2 34.02244894255435 11.361725683888766 3.3500000782379407 0 0 0
1846 1 34.05906723594094 11.380345572852304 5.002307211038583 0 0 0
10783 2 31.766006960058487 7.848010103107853 5.571695442493336 0 0 0
10781 2 32.84725755838585 10.373597677772539 5.578157999720496 0 0 0
10866 2 35.53454573679796 10.856933622809972 5.565366983804291 0 0 0
10864 2 33.87755925881796 12.926502148751066 5.604644719248032 0 0 0
13352 2 37.27582137661094 8.869919750119072 1.1189165436267139 0 0 0
3466 1 42.574622658936754 8.319848421679167 1.6948147826240592 0 0 0
4485 1 37.04018509909312 10.426260678900674 1.6972527497521905 0 0 0
13350 2 42.46477223009437 9.891354227349956 1.1042014122294874 0 0 0
4024 1 42.367491569510754 11.41836229733314 1.8001291952520004 0 0 0
14819 2 38.164076401118166 11.539264533350174 1.1119986524545373 0 0 0
4482 1 39.29468988790045 12.584877091129131 1.7933025221259888 0 0 0
14163 2 40.761231158626295 11.816622093127728 1.816965417455854 0 0 0
6104 2 42.50748905918871 8.329762001306165 3.349999999143452 0 0 0
828 1 42.574622825156844 8.319848539519617 5.005185093749444 0 0 0
7123 2 37.11670556668476 10.406255832113594 3.3499999465230568 0 0 0
1847 1 37.0401851114935 10.426260737499996 5.00274736427336 0 0 0
1386 1 42.36749163315153 11.418362316102062 4.899870848780629 0 0 0
7120 2 38.78882264599514 12.851033003971835 3.349999950373398 0 0 0
1844 1 39.29468998241886 12.584876990907896 4.90669752735365 0 0 0
9395 2 37.27582138330915 8.869919788090906 5.581083464583507 0 0 0
9393 2 42.46477218863373 9.89135407519952 5.595798490832214 0 0 0
10862 2 38.16407622821709 11.539264194210904 5.588001387387496 0 0 0
10206 2 40.76123081090282 11.816622170932304 4.883034459418104 0 0 0
12614 2 44.01936555329862 7.713894286805937 1.131427997060495 0 0 0
12613 2 46.63887570095089 8.311040472783876 1.1321453528220282 0 0 0
13346 2 47.58482025197423 10.940858066821793 1.140221339507887 0 0 0
3464 1 47.81013831658868 9.370661429736188 1.6980278619065565 0 0 0
14161 2 43.266273128864135 12.66952895677444 1.124623778436118 0 0 0
13347 2 45.9017190717485 13.057084624169795 1.135887127422305 0 0 0
3465 1 47.37001925162536 12.511870118541548 1.6999356027954728 0 0 0
6662 2 42.919254454765465 11.255328192493806 3.3499999210098417 0 0 0
6102 2 47.78644818627346 9.393064068662934 3.3500000976992235 0 0 0
826 1 47.81013714788737 9.370661500190193 5.001971844867125 0 0 0
6103 2 47.42163048090466 12.497705980930819 3.3499999467143384 0 0 0
827 1 47.37001926016611 12.51187013964353 5.000064370817734 0 0 0
8657 2 44.01936584525891 7.7138941687005955 5.568571802163536 0 0 0
8656 2 46.63887602974444 8.31104072857149 5.5678543477918465 0 0 0
9389 2 47.584820286486114 10.9408578520481 5.559778496681049 0 0 0
10204 2 43.2662728690265 12.669528732364356 5.575376155410154 0 0 0
9390 2 45.90171928320387 13.057084590246047 5.564112708649261 0 0 0
13345 2 49.27530760797741 8.803797061015045 1.1295660055002417 0 0 0
3504 1 50.73682603607965 8.231958696475822 1.6983985945853266 0 0 0
13403 2 51.93348174280413 9.257335662936546 1.1327578570962133 0 0 0
3503 1 53.105407834089284 10.310585304262398 1.6975133609368556 0 0 0
13405 2 52.80961652849098 11.8678937138931 1.1389110990964195 0 0 0
6142 2 50.75296855401848 8.22048953336624 3.3500001437650426 0 0 0
866 1 50.73682632696114 8.231958659015874 5.001601052433129 0 0 0
6141 2 53.10935612306202 10.33422006929666 3.3499999224521626 0 0 0
865 1 53.10540763682942 10.310585340273434 5.002486488520422 0 0 0
9388 2 49.275307922318106 8.80379692858273 5.57043406864018 0 0 0
9446 2 51.93348187634612 9.257335685466208 5.567241950178893 0 0 0
9448 2 52.80961656930975 11.867893716065964 5.561088748206811 0 0 0
13407 2 56.287217031206836 7.578135053546549 1.133447912403985 0 0 0
3505 1 56.03386457407657 9.13423759697279 1.6981715008949756 0 0 0
13404 2 54.580662987330875 9.748549623380844 1.134283127733217 0 0 0
13408 2 57.27943143636331 10.092436745351637 1.1332517281100147 0 0 0
3516 1 58.48991159295173 11.095714381286523 1.6979575594058118 0 0 0
13422 2 59.97516078339265 10.566919607983637 1.1309496586727041 0 0 0
13424 2 58.17154051591497 12.634281826436425 1.1309943864041894 0 0 0
6143 2 56.01485719127864 9.124160264706816 3.349999928570916 0 0 0
867 1 56.033864592849156 9.134237598127806 5.001828326109878 0 0 0
6154 2 58.508739253845874 11.086906841112528 3.349999877532466 0 0 0
878 1 58.489911339884706 11.09571433706572 5.002042255963637 0 0 0
9450 2 56.287217095659486 7.578134936727786 5.566551889423061 0 0 0
9447 2 54.58066313894772 9.748549574339945 5.5657167703841175 0 0 0
9451 2 57.27943163075258 10.092436900248133 5.566748106192318 0 0 0
9465 2 59.975160854528326 10.566919528075534 5.569050209391482 0 0 0
9467 2 58.17154053580691 12.634281770246494 5.569005407489736 0 0 0
12666 2 61.70265377897533 8.464730861215678 1.13284219301319 0 0 0
3515 1 61.45299916011312 10.017068128299186 1.6977614300939825 0 0 0
13423 2 62.70125867003737 10.97727537184547 1.132582980637373 0 0 0
13428 2 65.42043003844422 11.485577201004975 1.133459454646044 0 0 0
3524 1 63.92179692515416 11.975212984983402 1.698136622962181 0 0 0
6153 2 61.43932068434324 10.029566342190895 3.3499998774993918 0 0 0
877 1 61.45299912791039 10.017068171354403 5.002238450232004 0 0 0
6162 2 63.92975473792537 11.948584830611503 3.3500000442696876 0 0 0
886 1 63.92179699432521 11.97521297460097 5.001863115542742 0 0 0
8709 2 61.702653720419335 8.464730743463294 5.567157647068274 0 0 0
9466 2 62.7012584064226 10.97727518618301 5.567416854584062 0 0 0
9471 2 65.4204299590173 11.485577145608953 5.566540389711981 0 0 0
3512 1 67.42110719933966 7.875795532581906 1.6984434452035306 0 0 0
13418 2 68.92876266034851 7.4237232192398475 1.1310169536849906 0 0 0
12105 2 71.67888780858262 7.853610928588207 1.1414998323063357 0 0 0
3519 1 66.91208305461458 10.973252067163797 1.697972832162827 0 0 0
13419 2 67.13508919245243 9.418904977016046 1.1336720590162508 0 0 0
13429 2 68.16414646469923 11.933992348853709 1.1307367543405873 0 0 0
3521 1 69.37560166132153 12.947821350448692 1.6987934323225593 0 0 0
12107 2 70.89036416372346 12.509700668872618 1.1363267395084697 0 0 0
6150 2 67.4080920719281 7.844896289701958 3.349999982821035 0 0 0
874 1 67.42110715636856 7.875795382490826 5.001556438386664 0 0 0
6157 2 66.91327458292858 10.997974759806002 3.350000009812083 0 0 0
881 1 66.91208303936546 10.973252132842925 5.002026984178233 0 0 0
6159 2 69.3783114611058 12.899304397115312 3.34999986957516 0 0 0
883 1 69.37560136313675 12.947821307960194 5.001206733521996 0 0 0
9461 2 68.92876275910099 7.42372320203051 5.568982820269694 0 0 0
8148 2 71.6788878325898 7.8536108731601235 5.558500062247692 0 0 0
9462 2 67.1350891432444 9.418904893745207 5.56632778884215 0 0 0
9472 2 68.1641466059648 11.933992516402778 5.569263025307545 0 0 0