LAMMPS data file via write_data, version 2 Aug 2023, timestep = 2473, units = metal

15552 atoms
2 atom types

2.0334785819847934 197.72435938933017 xlo xhi
1.5926864706156927 171.2583653230289 ylo yhi
0 10 zlo zhi

Masses

1 28.085
2 15.999

Atoms # atomic

3242 1 4.058161526291835 3.414050697851514 1.697858413448288 0 0 0
12863 2 2.5139758861423416 3.7423233480973455 1.1338997862158857 0 0 0
12864 2 4.624863624699987 1.945954448630327 1.131817192455711 0 0 0
3244 1 6.199631007782172 5.700975529993514 1.6978800169513641 0 0 0
12862 2 5.097674061433226 4.58760970606576 1.131391032247849 0 0 0
12868 2 7.717563181583078 5.287995343661677 1.132062754275884 0 0 0
12866 2 5.73960030358292 7.202890991526113 1.1272341872674037 0 0 0
5834 2 4.035149169878071 3.402084092327142 3.3500003027955505 0 0 0
650 1 4.0581616690647 3.414050607968705 5.002141704813554 0 0 0
5836 2 6.211467016492923 5.706552627651067 3.350000055248922 0 0 0
652 1 6.199631161458213 5.700975717027211 5.002120129950134 0 0 0
8975 2 2.5139758407733104 3.742323298090576 5.566100403457926 0 0 0
8976 2 4.624863879050437 1.9459544030607128 5.568182890416366 0 0 0
8974 2 5.097673874415341 4.587609664051502 5.568609254211023 0 0 0
8980 2 7.7175632506603336 5.2879953589980655 5.567937413113324 0 0 0
8978 2 5.739600450658397 7.2028909819010725 5.572765967753801 0 0 0
3241 1 10.433299182271204 2.1339818362480494 1.698808046008766 0 0 0
12859 2 9.923754983560809 3.625105220934575 1.1324487846323974 0 0 0
12861 2 11.982497642166923 1.7930114083670547 1.1431136302695508 0 0 0
3245 1 9.274559442451718 5.064752787175271 1.6976297078694715 0 0 0
12869 2 10.178849884533504 6.350139894820673 1.1384385628514044 0 0 0
12098 2 12.80491364392216 6.750542146910914 1.1556456334324516 0 0 0
5833 2 10.45323092992829 2.1324871149302003 3.350000311515415 0 0 0
649 1 10.433299365109503 2.133982021441789 5.00119160070717 0 0 0
5837 2 9.270462088515467 5.036942955805563 3.3500001442442935 0 0 0
653 1 9.274559595652045 5.064752944003748 5.002370437199 0 0 0
8971 2 9.923754962163562 3.625105112095511 5.567551294391921 0 0 0
8973 2 11.982497589218967 1.7930113462325274 5.556886280542117 0 0 0
8981 2 10.178849744331348 6.350139623095925 5.561561586600047 0 0 0
8210 2 12.804913729485786 6.750542222594951 5.544354554377908 0 0 0
3858 1 15.684582452195682 3.7606985975008476 1.6989304802864298 0 0 0
13808 2 14.604896510084659 2.611276430815362 1.1387717293099824 0 0 0
3857 1 18.778439668159134 3.001686758886608 1.6999394483724295 0 0 0
13806 2 17.236819462222545 3.392731028862709 1.158325570081825 0 0 0
12099 2 15.154992752057511 5.249788602389665 1.1280967116351843 0 0 0
2809 1 14.375294463511754 6.62452837225194 1.7007849968114854 0 0 0
6450 2 15.706563320209378 3.7807451849167615 3.3499998206588604 0 0 0
1266 1 15.68458269827826 3.7606987405086176 5.001069685179732 0 0 0
6449 2 18.739609435455392 2.9608170043624322 3.3499999498018247 0 0 0
1265 1 18.778439647948076 3.0016865963956247 5.000060703196035 0 0 0
5401 2 14.39472695500198 6.552341227640156 3.3500002587034454 0 0 0
217 1 14.37529456224393 6.624528339867992 4.999214937132706 0 0 0
9920 2 14.604896179623124 2.6112761862931135 5.561228383607565 0 0 0
9918 2 17.236819561982685 3.3927309490499113 5.541674469639722 0 0 0
8211 2 15.154992765958754 5.249788675951797 5.5719034625703525 0 0 0
3863 1 20.70950825917146 5.4524944067827 1.7000468867972103 0 0 0
13805 2 19.867750778936298 4.131672912426128 1.1372853563437229 0 0 0
13814 2 22.28550237056627 5.4442567415481316 1.1523475134444916 0 0 0
3864 1 23.766798269937173 5.991120613227674 1.6988589155993197 0 0 0
12878 2 24.934845075089775 4.967912980542361 1.106780552907044 0 0 0
13813 2 19.95408396715798 6.8156748392834485 1.1252120705225115 0 0 0
6455 2 20.7071361365716 5.469253356153057 3.350000092555787 0 0 0
1271 1 20.709508345310905 5.452494440845508 4.999953099842567 0 0 0
1272 1 23.76679829543947 5.991120564049804 5.001141152182462 0 0 0
6456 2 23.770701754915947 6.008603842626199 3.35000006643227 0 0 0
9917 2 19.8677507630472 4.131672923346401 5.5627148050669275 0 0 0
9926 2 22.285502319580733 5.4442568046392905 5.547652511166298 0 0 0
8990 2 24.934844944361437 4.967913022326236 5.593219505909309 0 0 0
9925 2 19.954083954657165 6.815674870585055 5.574787981763005 0 0 0
12880 2 26.094133236757116 2.5062675736157267 1.1273838312568063 0 0 0
3251 1 26.212599951130954 4.076370126022912 1.6994360341607182 0 0 0
12879 2 27.603349702511515 4.816739777188328 1.152436697530381 0 0 0
4940 1 28.924778745003792 5.685721131959954 1.6951489564463695 0 0 0
15259 2 30.28433084165584 4.892359867347174 1.1152257924638809 0 0 0
5843 2 26.22090772494512 4.057261045832401 3.350000109082493 0 0 0
659 1 26.212600030642875 4.0763699866284675 5.000563993865822 0 0 0
2348 1 28.92477862916956 5.685721121854885 5.004851043159078 0 0 0
7532 2 28.963974613349187 5.72475886152284 3.3500001048221826 0 0 0
8992 2 26.09413343551576 2.5062676500062 5.57261616914313 0 0 0
8991 2 27.603349853439642 4.816739864140258 5.547563273673658 0 0 0
11371 2 30.28433082862357 4.8923599378847396 5.584774190873286 0 0 0
15260 2 31.519768122713447 2.413089415550055 1.1374625356808261 0 0 0
4939 1 31.57470304545993 3.9936153532520406 1.6973035875693945 0 0 0
15258 2 32.98173932564438 4.6909284517291665 1.13312873212261 0 0 0
4944 1 34.34224856842647 5.477804565288184 1.6973281280261008 0 0 0
15265 2 35.704420706381825 4.6688312165150965 1.137044421315027 0 0 0
15267 2 34.2804042362803 7.04772697572243 1.118249849586693 0 0 0
7531 2 31.567967078739095 3.9982135948047492 3.350000025234408 0 0 0
2347 1 31.574703130949946 3.993614933242459 5.00269641229535 0 0 0
7536 2 34.36061948425891 5.485306201852433 3.3500000329395263 0 0 0
2352 1 34.34224846203233 5.477804492347787 5.002671732452224 0 0 0
11372 2 31.51976810265927 2.4130883262372658 5.562537143738827 0 0 0
11370 2 32.98173929373497 4.690928355958006 5.566871255283921 0 0 0
11377 2 35.704420669431606 4.668831231861146 5.562955338108037 0 0 0
11379 2 34.280404208396014 7.047727007836819 5.581750054940637 0 0 0
4943 1 37.032811911870084 3.8115082484419975 1.6977745147850578 0 0 0
15266 2 36.97351159755796 2.229299204323538 1.1383708188292 0 0 0
15262 2 38.44504538112976 4.5234582777868075 1.1374527937315095 0 0 0
4941 1 39.83559915496995 5.2765369507431705 1.6986723332030969 0 0 0
13934 2 41.198708222721066 4.482039775425452 1.1369703911628373 0 0 0
15263 2 39.9037717594117 6.8484642523915324 1.1328346018160553 0 0 0
2351 1 37.032812212398774 3.8115085881629307 5.002225518664897 0 0 0
7535 2 37.03461382432721 3.809641466444641 3.3499999105507388 0 0 0
7533 2 39.82529097278183 5.252174215090646 3.349999894475063 0 0 0
2349 1 39.83559755418766 5.276536988568976 5.001327601729154 0 0 0
11378 2 36.973511510063744 2.2292991260894897 5.561629203120359 0 0 0
11374 2 38.44504582602019 4.523458503719129 5.562546812430592 0 0 0
10046 2 41.19870819842465 4.482039887358947 5.563029813275304 0 0 0
11375 2 39.9037719214947 6.848464299685919 5.5671652723003735 0 0 0
13935 2 42.520698780219966 2.1311965379842093 1.1338961116425197 0 0 0
3956 1 42.5713429668259 3.7064855595302895 1.6977027946755072 0 0 0
13931 2 43.95433444597507 4.473826604452321 1.1337106460828978 0 0 0
3954 1 45.35063680787036 5.218502902259209 1.6977417937745636 0 0 0
12218 2 46.70334135092164 4.422899724326663 1.1306047168591666 0 0 0
13932 2 45.47877596172441 6.78424384657958 1.1330926741480487 0 0 0
6548 2 42.59247518643585 3.7179429577395173 3.3499999958688136 0 0 0
1364 1 42.57134341641017 3.7064853595662295 5.00229697987937 0 0 0
6546 2 45.31839162210939 5.204722660263468 3.3499999723252984 0 0 0
1362 1 45.35063691050159 5.218502906508404 5.002258157124457 0 0 0
10047 2 42.520698517181124 2.13119676683498 5.566103785426615 0 0 0
10043 2 43.95433407144392 4.473826381737563 5.566289207180066 0 0 0
8330 2 46.703341394192876 4.422899695400641 5.569395234719802 0 0 0
10044 2 45.47877594698904 6.784243922249794 5.566907167283271 0 0 0
12220 2 48.04849810155597 2.123675780619197 1.1358217927646161 0 0 0
8332 2 48.048498305816295 2.1236758091307695 5.564178200140555 0 0 0
2881 1 48.09545910918743 3.6991928175741795 1.6978640157661555 0 0 0
2882 1 53.54037084467481 3.815433650832035 1.6977540831774658 0 0 0
12222 2 53.444225057119866 2.240161766215743 1.134269665151652 0 0 0
12219 2 49.44540662767183 4.530844283948337 1.137924379321802 0 0 0
2883 1 50.798907195570706 5.357302655608207 1.697741379838277 0 0 0
12221 2 52.182082924449745 4.6083576147981 1.1307466015474439 0 0 0
12223 2 50.836942311104444 6.936160277611187 1.138294789409555 0 0 0
5473 2 48.1298093076472 3.703111886363424 3.3499998251020755 0 0 0
289 1 48.095459196921645 3.6991927849659607 5.002136057812509 0 0 0
290 1 53.54037102961221 3.8154337020934688 5.002246059474768 0 0 0
5475 2 50.77045555391161 5.356579286694853 3.3499996931921765 0 0 0
291 1 50.79890735517683 5.35730268003391 5.002258853170028 0 0 0
8334 2 53.44422519789821 2.2401618232219005 5.565730150969717 0 0 0
8331 2 49.44540648063904 4.530844235176628 5.56207564874749 0 0 0
8333 2 52.18208289925161 4.608357617383708 5.5692533312774435 0 0 0
8335 2 50.83694231669033 6.936160212039383 5.561705230994102 0 0 0
5474 2 53.56537052970838 3.8153396640238317 3.3499997454645327 0 0 0
3926 1 59.053065283215 3.9340968218363708 1.698342759876815 0 0 0
13896 2 58.95366728007009 2.3633693252626453 1.1281757893366824 0 0 0
11849 2 54.923778392631014 4.593684119428606 1.1427122057111299 0 0 0
2676 1 56.277513645760756 5.42235520267793 1.698322197454045 0 0 0
11850 2 57.682673401392364 4.710265241187486 1.1339821160122445 0 0 0
11851 2 56.271822740512036 6.998692376810881 1.1371790249925378 0 0 0
6518 2 59.07821652102346 3.9447774646335527 3.3499998183365256 0 0 0
1334 1 59.05306543044763 3.9340968623535693 5.001657203543235 0 0 0
5268 2 56.258401153555376 5.413029034875716 3.349999861767512 0 0 0
84 1 56.27751346724978 5.422355141123304 5.001677826428558 0 0 0
10008 2 58.95366704250223 2.3633692026566404 5.571824067314493 0 0 0
7961 2 54.92377824292574 4.593684024306799 5.557287625251588 0 0 0
7962 2 57.68267329513857 4.710265329928732 5.5660177705003075 0 0 0
7963 2 56.271822699349975 6.998692312834627 5.562820893803023 0 0 0
14640 2 64.58995050186209 2.5445029359526203 1.1404134491457285 0 0 0
13894 2 60.44896527539854 4.697236656225696 1.1482629817527688 0 0 0
3925 1 61.80861561712762 5.520813052416794 1.6986745016006826 0 0 0
13895 2 63.22208424741415 4.8263917113431205 1.1292681256594945 0 0 0
4452 1 64.63327634783691 4.129359184372296 1.6987420115705774 0 0 0
13049 2 61.7966033675026 7.091749688510492 1.1295440419782365 0 0 0
6517 2 61.79129293025756 5.512743773282242 3.349999942123119 0 0 0
1333 1 61.80861542720705 5.520813002986396 5.001325503003205 0 0 0
7044 2 64.66424300473655 4.128724595894454 3.349999780729362 0 0 0
1860 1 64.63327646522441 4.129359155364074 5.001258017052169 0 0 0
10752 2 64.58995069821495 2.544502916847 5.55958654338406 0 0 0
10006 2 60.4489651426035 4.697236598646862 5.551736830625176 0 0 0
10007 2 63.22208402200572 4.826391786133309 5.570731765593183 0 0 0
9161 2 61.79660356501284 7.091749716710192 5.57045580695994 0 0 0
15340 2 69.72423332548392 2.472496175429706 1.140353725295382 0 0 0
14639 2 65.99162380201159 4.98902592664533 1.1698818839324103 0 0 0
4451 1 67.38236521607334 5.786150441381757 1.7002207676016332 0 0 0
5001 1 69.97104415781354 4.020692262818936 1.6995919730172049 0 0 0
14638 2 68.72862965828814 4.97720721676269 1.1346577180276263 0 0 0
7593 2 69.97062643491898 4.017959378350141 3.349999953588487 0 0 0
7043 2 67.33826197023538 5.813312857870801 3.350000118445477 0 0 0
1859 1 67.38236515049022 5.786150407595774 4.999778954214255 0 0 0
2409 1 69.97104447696522 4.02069213052347 5.000407631692202 0 0 0
11452 2 69.72423297551475 2.472495996908577 5.559645795927609 0 0 0
10751 2 65.99162386232797 4.989025789863816 5.5301180271857895 0 0 0
10750 2 68.7286296869536 4.977207150651198 5.5653422355851365 0 0 0
4043 1 74.32180953648019 1.6273749621217826 1.69883261235737 0 0 0
14070 2 73.78354447855696 3.106783517911916 1.1513260842226818 0 0 0
15339 2 71.45896803563916 4.561074436173692 1.1568628488855528 0 0 0
5000 1 73.04108849613162 4.496355620879528 1.6986242264778273 0 0 0
13904 2 73.88899413671408 5.80857645066142 1.1221568383540794 0 0 0
3932 1 74.92279815054174 6.986240971118114 1.6989687102886502 0 0 0
13900 2 76.47259241611408 6.610018292127612 1.1631024983676015 0 0 0
6635 2 74.32461412700036 1.6572520014667707 3.3499999575200965 0 0 0
1451 1 74.32181000357801 1.627375119240899 5.001167039547112 0 0 0
7592 2 73.04722267436168 4.487409461125959 3.3499998638162323 0 0 0
2408 1 73.04108802761247 4.496355859405201 5.001375631028771 0 0 0
1340 1 74.92279840534243 6.986240901960005 5.001031466562919 0 0 0
10182 2 73.783544775214 3.1067830577197086 5.548673771067958 0 0 0
11451 2 71.45896863046438 4.5610743765176105 5.543136872635908 0 0 0
10016 2 73.88899405015802 5.8085764306439795 5.577843178106558 0 0 0
10012 2 76.4725923975116 6.610018282412956 5.536897292329897 0 0 0
6524 2 74.95105218028402 7.010986333574937 3.3499997414046936 0 0 0
14634 2 78.40386215549402 1.811839471634837 1.1616150462686947 0 0 0
4448 1 79.1840558317225 3.201158080697802 1.697396148783975 0 0 0
4784 1 82.28084031955547 2.644184387354921 1.6981491822137238 0 0 0
14633 2 80.75577216580871 3.052989545626296 1.1357026140511386 0 0 0
13901 2 78.48225909454207 4.643223411375555 1.1490760025788966 0 0 0
3929 1 78.01154326451004 6.173267219697365 1.6984002158602856 0 0 0
7040 2 79.16076248675736 3.2415179938234018 3.350000010560586 0 0 0
1856 1 79.18405536915571 3.201158068930002 5.0026034849040535 0 0 0
7376 2 82.26895683136851 2.624978157534959 3.3500000013830022 0 0 0
2192 1 82.28083971334685 2.6441843991854443 5.001850786907268 0 0 0
6521 2 78.00485687076662 6.146137839215955 3.3500000029009036 0 0 0
1337 1 78.01154302628035 6.173267193496749 5.001599670859304 0 0 0
10746 2 78.40386163376151 1.811839303171349 5.538384639460856 0 0 0
10745 2 80.75577305637088 3.052989492562545 5.564297187324057 0 0 0
10013 2 78.48225908568365 4.643223424774981 5.550923892630405 0 0 0
15062 2 83.35507873838114 3.7974761690692906 1.1422662357338875 0 0 0
15065 2 88.05414142074676 2.9401652539500183 1.138964122283357 0 0 0
4785 1 84.36215720867011 5.010930645531252 1.6980100022252251 0 0 0
4786 1 87.470509522225 4.405182040122399 1.6982740225233472 0 0 0
15064 2 85.91808211508209 4.720337785708522 1.1365958108404954 0 0 0
13000 2 83.78191164912846 6.482450484407551 1.1344158337659533 0 0 0
7377 2 84.37549434987818 5.024465539455462 3.3500000227222095 0 0 0
2193 1 84.36215702395789 5.010930661718029 5.001990018520197 0 0 0
7378 2 87.44242721155322 4.402400376903334 3.3499998211926743 0 0 0
2194 1 87.47050971488505 4.4051820494648455 5.001726159366204 0 0 0
11174 2 83.35507858191795 3.797475904898934 5.557733560982276 0 0 0
11177 2 88.0541413464502 2.940165393986675 5.561035861398284 0 0 0
11176 2 85.91808232860777 4.720337740983589 5.563404112198968 0 0 0
9112 2 83.78191157881955 6.482450396784093 5.5655841051545405 0 0 0
4998 1 93.74815339352685 3.0386603038704854 1.698171261225243 0 0 0
15337 2 92.69556673811968 1.861165292181211 1.1369174780131235 0 0 0
14635 2 88.5200191032181 5.575552888429092 1.135294777970129 0 0 0
4450 1 92.68382954133786 6.018251824724654 1.6980583106067546 0 0 0
14637 2 93.19780402514125 4.522453909991602 1.1399644139323242 0 0 0
4449 1 89.59108375028157 6.726846796156321 1.6982445797380332 0 0 0
14636 2 91.13928942269732 6.381149718316642 1.140461820381323 0 0 0
12908 2 93.76596284658363 7.165678782709341 1.135893757105388 0 0 0
7590 2 93.76799379656539 3.0407787198759233 3.349999832353034 0 0 0
2406 1 93.74815345641412 3.038660134514051 5.001829222026445 0 0 0
7042 2 92.66477379024076 6.012960985666513 3.350000162484481 0 0 0
1858 1 92.68382989382529 6.0182516444911425 5.001941713711756 0 0 0
7041 2 89.61639097455236 6.738797488907265 3.350000065385625 0 0 0
1857 1 89.59108323116062 6.726846780236494 5.0017555526962845 0 0 0
11449 2 92.69556656060757 1.8611650694651836 5.56308249662677 0 0 0
10747 2 88.52001917863234 5.57555288390554 5.56470540206955 0 0 0
10749 2 93.19780399393406 4.522453974812764 5.56003571446299 0 0 0
10748 2 91.13928869882386 6.381149882665616 5.559538338115505 0 0 0
9020 2 93.7659627760656 7.165678735535175 5.56410637242163 0 0 0
4999 1 96.86690672253249 2.4282470847415976 1.6980938581426517 0 0 0
15336 2 95.3089088220358 2.7387375928886843 1.1433442141244352 0 0 0
13833 2 97.93835856725342 3.58733735734593 1.1379277839978392 0 0 0
3878 1 99.01402083707605 4.741673787928222 1.697865001434958 0 0 0
12910 2 98.46831974974825 6.222449081044328 1.1360077449927444 0 0 0
7591 2 96.84842271979178 2.4335959726732246 3.350000007346149 0 0 0
2407 1 96.86690566310313 2.4282474779219827 5.001906472145765 0 0 0
6470 2 99.0386236115378 4.737348774355054 3.349999916789157 0 0 0
1286 1 99.01401981525584 4.741674105120276 5.002134827549795 0 0 0
11448 2 95.30890930325461 2.7387374526271375 5.556655708462376 0 0 0
9945 2 97.93835852194002 3.5873374518095806 5.562072441449521 0 0 0
9022 2 98.46831966417484 6.222449243788104 5.563992312027085 0 0 0
3243 1 5.29504769550194 8.70778045355829 1.6976795414692472 0 0 0
3656 1 2.217778845444736 9.416800746589631 1.6980293701556843 0 0 0
12867 2 3.7592657927420285 9.07899325329854 1.130521043166768 0 0 0
12865 2 6.42557501100546 9.806122636907403 1.1395313249977075 0 0 0
4721 1 7.494730810856147 10.96381408269461 1.6994695003902156 0 0 0
14982 2 6.9396197685469865 12.428323480469038 1.1308462116924576 0 0 0
5835 2 5.280182605295482 8.720545094772955 3.3499998652874163 0 0 0
651 1 5.295047767054854 8.70778047727844 5.002320741754276 0 0 0
6248 2 2.233383235290539 9.408173370365262 3.3500002149221326 0 0 0
1064 1 2.217778808420425 9.416800792527173 5.001970647117228 0 0 0
7313 2 7.511328306630076 10.953874316705646 3.350000096552882 0 0 0
2129 1 7.494730834627869 10.963814141141418 5.000530558337273 0 0 0
8979 2 3.759265836287705 9.078993325708188 5.569479101229148 0 0 0
8977 2 6.4255751021331475 9.806122821697127 5.560468849677538 0 0 0
11094 2 6.939619781385564 12.428323584109432 5.569153874837588 0 0 0
3246 1 11.359395347822236 7.387972736866 1.698473247812872 0 0 0
14980 2 9.051683729846077 10.708339283153054 1.1337108878130098 0 0 0
12870 2 11.11203448119982 8.952636219076078 1.137338421269738 0 0 0
4717 1 10.611045220303815 10.454070510519319 1.6980745783340698 0 0 0
14979 2 11.635721579239013 11.670588775942392 1.1438869676715002 0 0 0
4718 1 12.723164165330356 12.831321044986286 1.7006922404027751 0 0 0
5838 2 11.342624093915584 7.423471903570927 3.349999962521884 0 0 0
654 1 11.359395424873329 7.387972793028501 5.001526984570812 0 0 0
7309 2 10.626668160247666 10.472506828311825 3.350000108009412 0 0 0
7310 2 12.67397873718375 12.81730586742018 3.3500000138945722 0 0 0
2126 1 12.723164159755981 12.831321197041479 4.99930778031549 0 0 0
11092 2 9.05168371764757 10.708339366402424 5.566289215081444 0 0 0
2125 1 10.611045173570394 10.454070439145449 5.001925483266009 0 0 0
8982 2 11.112034453725105 8.952636277264942 5.562661716649545 0 0 0
11091 2 11.63572164595937 11.67058879837419 5.55611306800063 0 0 0
12100 2 15.104998635443614 8.027369502290608 1.1757177168928716 0 0 0
12871 2 17.721324794528876 8.35937502859869 1.1483736977005308 0 0 0
3247 1 16.31372780262596 9.038783390602763 1.7013552013071336 0 0 0
12872 2 16.134526860234708 10.587969364306902 1.1083367059681242 0 0 0
12877 2 14.254388029616408 12.477530215611315 1.139089973098918 0 0 0
3250 1 15.783619404412148 12.11025165433954 1.6979079237790513 0 0 0
5839 2 16.306505203601397 9.114186694883372 3.3500000875334686 0 0 0
655 1 16.3137278334743 9.038783386838256 4.9986447207484 0 0 0
5842 2 15.82096376457273 12.098850669177896 3.3499999682661783 0 0 0
658 1 15.783619465115438 12.110251736223363 5.002092098207152 0 0 0
8212 2 15.104998725817241 8.027369516953692 5.524282413214662 0 0 0
8983 2 17.721324866395697 8.359375052529485 5.5516263068675755 0 0 0
8984 2 16.134526883467444 10.587969492629682 5.591663272653788 0 0 0
8989 2 14.25438820414833 12.477530259283553 5.56090999978429 0 0 0
3862 1 19.272192064205168 8.215827745316833 1.7012516824531607 0 0 0
1270 1 19.272191998812907 8.215827808446589 4.998748363739194 0 0 0
13809 2 24.08284051076052 7.536304289930799 1.1523644750470294 0 0 0
13812 2 20.10057757860774 9.54392956206357 1.1613657516382687 0 0 0
3861 1 21.32726296082269 10.516900066791129 1.6975167052158293 0 0 0
13810 2 22.74613810159229 9.884794104536901 1.1221304608366016 0 0 0
3860 1 24.094343620945327 9.113735335452146 1.7008947831709051 0 0 0
12873 2 21.09452187373916 12.043299437224762 1.0930840826988348 0 0 0
6454 2 19.310637601737728 8.172358794333096 3.34999988680803 0 0 0
6453 2 21.349503680502885 10.55653404458956 3.350000115879109 0 0 0
1269 1 21.327262907053452 10.516900038126797 5.002483204001229 0 0 0
6452 2 24.108689634683863 9.083023698336387 3.350000049418666 0 0 0
1268 1 24.094343626850634 9.113735384260599 4.999105225806921 0 0 0
9921 2 24.082840515588636 7.536304302766138 5.547635501841598 0 0 0
9924 2 20.100577698968543 9.543929654012036 5.538634165079454 0 0 0
9922 2 22.746138058071605 9.88479395775578 5.577869463792348 0 0 0
8985 2 21.094521854085286 12.043299341527705 5.606915828756825 0 0 0
15261 2 28.838272212967198 7.26694537114963 1.1163753409946717 0 0 0
11373 2 28.83827222318654 7.266945350442429 5.583624522797771 0 0 0
5105 1 28.962674820948855 8.812166115421617 1.7695069759565316 0 0 0
13811 2 25.387515366577855 9.985929371692263 1.1312035336208741 0 0 0
5106 1 26.668119750466605 10.887986407628711 1.6983585756835617 0 0 0
15464 2 28.00820040475953 10.039581645524633 1.1306591122260456 0 0 0
15463 2 30.555388910760282 9.26264688542564 1.6398459917114592 0 0 0
15465 2 26.572576627411014 12.484936058104424 1.1563035596883866 0 0 0
7697 2 28.51837553053022 8.662923645749379 3.350000033704339 0 0 0
2513 1 28.962674804603 8.812166052467893 4.930492903882828 0 0 0
7698 2 26.685680938274032 10.950239851095112 3.3500000738416946 0 0 0
2514 1 26.668119755061866 10.887986330106786 5.0016413984830415 0 0 0
9923 2 25.38751546001415 9.985929413845325 5.5687963914303396 0 0 0
11576 2 28.00820015575202 10.039581781642076 5.56934073517371 0 0 0
11575 2 30.555389157727156 9.262646989803258 5.060153894765562 0 0 0
11577 2 26.572576633714608 12.484935975766088 5.543696383039237 0 0 0
5109 1 34.384988687203005 8.620370422730991 1.6935004221412078 0 0 0
5110 1 31.799052100787254 10.35781516385976 1.7683347874512767 0 0 0
15469 2 33.136351504984404 9.584010072072532 1.108345268875318 0 0 0
15468 2 35.829150436935386 9.230771933293822 1.1228818207226114 0 0 0
15470 2 31.340559506323288 11.854594509733392 1.1462608116488089 0 0 0
7701 2 34.33479569298052 8.60598551086671 3.3500001478309263 0 0 0
2517 1 34.384988658312295 8.620370308224862 5.006499374699957 0 0 0
7702 2 32.170848085440646 10.634481120191243 3.3500000263798673 0 0 0
2518 1 31.799052042728096 10.357814994934602 4.931665186453534 0 0 0
11581 2 33.13635135973612 9.58401015079594 5.591654592283314 0 0 0
11580 2 35.82915055123686 9.230771914572182 5.577118093032282 0 0 0
11582 2 31.34055952314357 11.854594461263321 5.553739030487626 0 0 0
4942 1 39.94872497973507 8.423343287417 1.698412668026668 0 0 0
5112 1 37.20685566728432 9.974493735374285 1.7000704066036885 0 0 0
15264 2 38.58501245559784 9.211224270647856 1.135678704156229 0 0 0
14971 2 41.33412893433164 9.185829545967632 1.135700116973121 0 0 0
15471 2 37.1897725422564 11.537699055214093 1.1286360793225219 0 0 0
7534 2 39.96079040854359 8.435650908929961 3.350000251825571 0 0 0
2350 1 39.948724825235175 8.423343279861207 5.001587000844481 0 0 0
7704 2 37.20075830027722 9.93292304126695 3.3500001585504036 0 0 0
2520 1 37.20685557588961 9.974493787141784 4.999929419445142 0 0 0
11376 2 38.585012454416365 9.211224229786119 5.5643213366899875 0 0 0
11083 2 41.33412877900367 9.18582952212384 5.564299749451972 0 0 0
11583 2 37.18977252548325 11.53769906343584 5.571363903643909 0 0 0
3955 1 45.49698879251914 8.355572294053658 1.6980982680954908 0 0 0
4712 1 42.76122392430945 9.871433002064524 1.6992874377582061 0 0 0
14972 2 42.98688486916388 11.427247511683465 1.1452822837541237 0 0 0
13933 2 44.08541020945922 9.034515162088006 1.1326029746150172 0 0 0
13929 2 46.825445787242586 9.214726550366962 1.1330727935025622 0 0 0
6547 2 45.53609641957386 8.35994150695123 3.3499999983083883 0 0 0
1363 1 45.49698904121631 8.355572211914787 5.001901730263248 0 0 0
7304 2 42.72332768517544 9.844211578760726 3.350000043588129 0 0 0
2120 1 42.761223834430496 9.871433021765723 5.000712536221266 0 0 0
11084 2 42.986885015373005 11.427247156097641 5.554717767790241 0 0 0
10045 2 44.085410144127735 9.03451510303278 5.5673969416765114 0 0 0
10041 2 46.82544594256507 9.214726640243917 5.566927076648748 0 0 0
6545 2 48.13844122921234 10.057494889598114 3.349999787667043 0 0 0
3952 1 50.909393205419356 8.514959822415623 1.6982887496605692 0 0 0
3953 1 48.164747483001165 10.055651529952778 1.6980798902016203 0 0 0
13928 2 49.55028852805533 9.308340464311309 1.13446369098442 0 0 0
13927 2 52.28199529309671 9.30558755959091 1.1375789305429909 0 0 0
3951 1 53.62952298496413 10.141750533953633 1.6975563701389171 0 0 0
13930 2 48.17531984666317 11.635757215570372 1.1388219542721905 0 0 0
13925 2 53.6036911591843 11.725245063975795 1.1416509486335233 0 0 0
1360 1 50.90939324440463 8.51495968139103 5.00171109101031 0 0 0
6544 2 50.93410986689657 8.510561329050809 3.3500001679117766 0 0 0
1361 1 48.164747199154185 10.055651462754065 5.001920213253381 0 0 0
6543 2 53.62159174508333 10.140561364939279 3.3500001210999204 0 0 0
1359 1 53.6295229367111 10.141750430640394 5.002443496069393 0 0 0
10040 2 49.55028839778234 9.308340492582941 5.565536456828524 0 0 0
10039 2 52.28199528628315 9.305587567160547 5.562421006446578 0 0 0
10042 2 48.175319859985954 11.635757186912063 5.561178035881574 0 0 0
10037 2 53.603691145239246 11.72524499711324 5.558349011430671 0 0 0
2906 1 56.37408521547947 8.572071844193683 1.6978780274370353 0 0 0
12262 2 55.02508402798314 9.398844271198687 1.1379811050143622 0 0 0
12263 2 57.795688915491766 9.272751801048958 1.139484202279117 0 0 0
3369 1 59.12932021761866 10.131893122462166 1.6970278624659376 0 0 0
13048 2 58.95520411298995 11.700153461011753 1.1368221547708923 0 0 0
5498 2 56.38180024464288 8.584305282623172 3.3500000068631874 0 0 0
314 1 56.374085104498086 8.57207194986656 5.002121902688577 0 0 0
5961 2 59.14873625261697 10.10528598390425 3.349999648107069 0 0 0
777 1 59.129320114398624 10.13189306490507 5.002972292787296 0 0 0
8374 2 55.02508417131551 9.398844183341355 5.5620187906149 0 0 0
8375 2 57.795688880902006 9.272751635551982 5.560515681543951 0 0 0
9160 2 58.95520407967235 11.700153534495367 5.563177741919767 0 0 0
3370 1 61.94318418160516 8.658798565568905 1.697526136387686 0 0 0
13047 2 60.584591901075065 9.488184877927726 1.1417489602763857 0 0 0
13050 2 63.412180760194076 9.291977533992675 1.1584688440279267 0 0 0
3371 1 64.73072016421564 10.198348580226986 1.700513081131303 0 0 0
13051 2 64.46537587128675 11.74499118466394 1.1277045780330297 0 0 0
778 1 61.94318406912227 8.658798494789606 5.002473809861509 0 0 0
5962 2 61.9413775258336 8.687176241145721 3.350000038159251 0 0 0
5963 2 64.72755334832874 10.160939225470722 3.3500001852193044 0 0 0
779 1 64.73071964768269 10.198348506239103 4.999486623365784 0 0 0
9159 2 60.584592146536195 9.488184659816396 5.558250952445731 0 0 0
9162 2 63.412180974191536 9.29197744814201 5.5415310490579825 0 0 0
9163 2 64.46537602795595 11.7449911608256 5.572295437376621 0 0 0
12224 2 67.53677735639087 7.3597141237397405 1.1282445394882674 0 0 0
12225 2 66.26293626654447 9.68185778478937 1.1963343853847312 0 0 0
2884 1 67.69422495465396 8.93586268271036 1.7011807425481973 0 0 0
12226 2 69.14198531080945 9.687675595365821 1.1757175235076918 0 0 0
2885 1 70.50079355479478 10.591742268735343 1.7030046672731638 0 0 0
12228 2 70.34823214416427 12.178216334629674 1.1691357568293417 0 0 0
5476 2 67.73808393156553 8.944224125265404 3.35000012217505 0 0 0
292 1 67.69422532213059 8.935862537419997 4.998819099669538 0 0 0
5477 2 70.48127697323089 10.54854441438033 3.3500000304814512 0 0 0
293 1 70.50079376355396 10.591742152634307 4.996995323480517 0 0 0
8336 2 67.53677733572172 7.359714092879121 5.571755386801986 0 0 0
8337 2 66.26293614478517 9.68185774470047 5.503665649235435 0 0 0
8338 2 69.14198533119797 9.68767551286223 5.524282391106403 0 0 0
8340 2 70.34823193315582 12.178216459910916 5.530864284154763 0 0 0
13903 2 74.33766323648996 8.463308125936804 1.1405133797394722 0 0 0
12227 2 72.04157624578552 10.0801981395956 1.1849481495036158 0 0 0
3931 1 73.65733302990984 9.901619255364777 1.7014526089029238 0 0 0
13899 2 74.69084128835912 11.137878912099234 1.1871178013092198 0 0 0
3928 1 75.89582102976081 12.216438597432068 1.6984972887735779 0 0 0
6523 2 73.6366569534129 9.892063387905743 3.3500001110819615 0 0 0
1339 1 73.65733281943899 9.901619207146842 4.99854738855369 0 0 0
6520 2 75.90141146753429 12.210317683780758 3.350000184120201 0 0 0
1336 1 75.89582093603366 12.216438633102818 5.001502475398545 0 0 0
10015 2 74.33766320271839 8.463308238562215 5.559486679685727 0 0 0
8339 2 72.04157649055315 10.080198147040857 5.515051848300925 0 0 0
10011 2 74.69084127890042 11.137878813676085 5.51288231959721 0 0 0
13902 2 79.08811242062224 7.3374682012707435 1.139338986356659 0 0 0
3930 1 80.10167567443746 8.555907645194095 1.698558460134865 0 0 0
13001 2 81.66526357290962 8.26933217371528 1.1497156616764637 0 0 0
13897 2 79.56131948279227 10.050077326403951 1.142357213117011 0 0 0
13898 2 77.4374170033906 11.79792622625595 1.1468857255740708 0 0 0
3927 1 79.01247360144738 11.540217930517649 1.697455259305007 0 0 0
13003 2 80.06395344043646 12.739440556880188 1.1437276158243017 0 0 0