LAMMPS data file via write_data, version 2 Aug 2023, timestep = 2495, units = metal

15780 atoms
2 atom types

2.137695079658489 199.06414731482454 xlo xhi
1.6932443612038937 172.677531523033 ylo yhi
0 10 zlo zhi

Masses

1 28.085
2 15.999

Atoms # atomic

14929 2 3.979957348300713 3.2811736122765818 1.132304918790645 0 0 0
4590 1 4.809170207878864 1.9473289855157594 1.6972995171089889 0 0 0
14238 2 6.3753858967809665 2.106191702450037 1.1315047296313643 0 0 0
4589 1 3.2167620772918317 4.650933807214083 1.698165102368864 0 0 0
14930 2 4.011931127526155 6.014335119442163 1.1303209961561511 0 0 0
4592 1 4.805625487063736 7.377302882991951 1.6977001132605003 0 0 0
7220 2 4.806232610647587 1.9179903351121566 3.3499917937161565 0 0 0
1960 1 4.809162940622176 1.9473395566340264 5.002711243456512 0 0 0
6698 2 7.922648351414906 2.198231758642323 3.349998888113336 0 0 0
7219 2 3.2172547856041187 4.681173693790883 3.3499685562165324 0 0 0
1959 1 3.2167475245420034 4.650932756824477 5.001863952511014 0 0 0
7222 2 4.809796673369096 7.361128056423916 3.3499935862632086 0 0 0
1962 1 4.805620160258975 7.37728903258201 5.002306834272059 0 0 0
10984 2 3.9799665114780858 3.2811595463445227 5.567693078085206 0 0 0
10293 2 6.375386458773528 2.1061909864384605 5.56849556793295 0 0 0
10985 2 4.011939510166846 6.014349597624971 5.569677585425626 0 0 0
4068 1 7.949787699862317 2.150833768312038 1.6992058250629813 0 0 0
1438 1 7.9497879038022505 2.1508335798716227 5.00079405779283 0 0 0
14233 2 8.829680734671385 3.461366219045147 1.138384631913631 0 0 0
14236 2 13.581261027209653 3.7793623554589337 1.1225787070510993 0 0 0
14235 2 8.740681153031405 6.129388376602499 1.127890113025862 0 0 0
4065 1 9.611313950851127 4.8323611470173935 1.6989606816091405 0 0 0
14234 2 11.182253148993578 4.989934231254301 1.1370842127066412 0 0 0
4067 1 12.758198164654932 5.097934100530271 1.6995284514674907 0 0 0
13320 2 13.596897842277587 6.427427877791743 1.1334574973256242 0 0 0
1435 1 9.611314127747205 4.832364572771986 5.001039248834822 0 0 0
6695 2 9.643014376626825 4.803307759290037 3.3500004309778424 0 0 0
6697 2 12.728610602620938 5.135493899007377 3.349994992441518 0 0 0
1437 1 12.758197395453207 5.097933902496188 5.000473942223288 0 0 0
10288 2 8.829680406297678 3.46136533312004 5.561615358395526 0 0 0
10291 2 13.581263212076447 3.7793594631865393 5.577420485160699 0 0 0
10290 2 8.740683252737536 6.129384881984459 5.572108949173463 0 0 0
10289 2 11.182251430108689 4.989934326284748 5.56291544806971 0 0 0
9375 2 13.596899858101557 6.427431243604631 5.566542176604363 0 0 0
4066 1 14.35580291236415 2.428592894511806 1.6977715658986465 0 0 0
12418 2 15.932135913878108 2.493218022159759 1.1329274737865953 0 0 0
2918 1 17.50952502257427 2.480294829277083 1.6985263253623828 0 0 0
12419 2 18.425765213657158 3.758691506279765 1.1255869802061815 0 0 0
14134 2 18.663812462346634 6.392750955048812 1.1381867083168673 0 0 0
4004 1 19.405425848012662 4.990245083863137 1.6984504492240615 0 0 0
6696 2 14.391734386683979 2.3904899154416377 3.349999635469191 0 0 0
1436 1 14.355802936076635 2.4285920907337695 5.002231105764111 0 0 0
5548 2 17.485666034538287 2.528738524365751 3.3499973345039695 0 0 0
288 1 17.509522217539857 2.480307849363095 5.00146877160478 0 0 0
1374 1 19.405425911548072 4.990244675630545 5.001551234049189 0 0 0
6634 2 19.41436596760407 5.001100050751141 3.3499979912202984 0 0 0
8473 2 15.932128879260949 2.4932189506355784 5.567072209346613 0 0 0
8474 2 18.425765743113125 3.758692144921652 5.574412911113095 0 0 0
10189 2 18.663812929193547 6.392749839457545 5.561813372662461 0 0 0
14878 2 23.558114257969784 3.500936782689783 1.1747177939000892 0 0 0
4551 1 24.202935772013895 2.0269836714052065 1.7044536076856491 0 0 0
14135 2 21.006872719297263 4.792757238273468 1.1847279323062163 0 0 0
4550 1 22.617808612286865 4.805929086647641 1.7015826876407245 0 0 0
14879 2 23.29888685437109 6.221440425170246 1.1205869854317614 0 0 0
1921 1 24.202909754202736 2.0269873033791708 4.995540364953899 0 0 0
7181 2 24.239418829838346 2.0459502774933505 3.350005745988524 0 0 0
7180 2 22.607545418045333 4.793465712625026 3.3500001262488612 0 0 0
1920 1 22.6178049385277 4.805928841790998 4.9984141047991635 0 0 0
10933 2 23.55812218590097 3.500924467266663 5.52528298368112 0 0 0
10190 2 21.006873168549554 4.792756697267047 5.5152715141400765 0 0 0
10934 2 23.298888206882374 6.221444726517699 5.5794137874801 0 0 0
15321 2 28.503952326039283 1.929334714097735 1.1276708472166306 0 0 0
4893 1 29.81613766785482 2.791937370966318 1.6986154260041897 0 0 0
14883 2 28.039538460727673 6.528010007279459 1.2090317191733175 0 0 0
4894 1 29.503708724179567 5.892613917561894 1.7004323646132815 0 0 0
15320 2 29.687217244168952 4.3475479895854 1.1017079416196447 0 0 0
15323 2 30.74275340089013 6.8490413915354775 1.1289458412592484 0 0 0
7523 2 29.81839326404907 2.791759643551464 3.349994128036471 0 0 0
2263 1 29.81613918359612 2.7919380403669365 5.001388074185095 0 0 0
7524 2 29.566880499730942 5.872840737095413 3.3500032176048142 0 0 0
2264 1 29.50370627153915 5.892615080441055 4.999565646052066 0 0 0
11376 2 28.503955886639403 1.9293363025983907 5.572333724371561 0 0 0
10938 2 28.039545067802514 6.528004166207005 5.490968496210265 0 0 0
11375 2 29.687216232976613 4.347549175798008 5.598292561660468 0 0 0
11378 2 30.742751948683885 6.849040736934374 5.571054124454583 0 0 0
15322 2 31.247642242142373 2.1024456646297955 1.1675809117889062 0 0 0
15325 2 33.8409471820624 2.8939542241888585 1.152473485508238 0 0 0
4895 1 35.20914263772377 3.699313904754277 1.6991769982555789 0 0 0
14884 2 36.513062552043124 2.821926265733735 1.1459497633123017 0 0 0
15324 2 35.34394514654596 5.284351759895618 1.1570234263493597 0 0 0
15326 2 33.44753022268285 7.118264855622755 1.1190330752161173 0 0 0
4897 1 34.97755765270693 6.833418293903743 1.6970505240686065 0 0 0
7525 2 35.18220412246391 3.7302480334571153 3.350000906655989 0 0 0
2265 1 35.209165963199005 3.6993114741184163 5.000824639686601 0 0 0
7527 2 35.03297396234449 6.8458744302298316 3.349995279472309 0 0 0
2267 1 34.97755652751273 6.833422869647413 5.002954173441456 0 0 0
11377 2 31.247651482803875 2.102442302624096 5.532417827719637 0 0 0
11380 2 33.840941317904566 2.8939500712308908 5.547529662085838 0 0 0
10939 2 36.51303208725798 2.8219403621662145 5.554050353132739 0 0 0
11379 2 35.34394451801408 5.284346846946941 5.5429774142543975 0 0 0
11381 2 33.44753634886826 7.118262644591769 5.580967710453633 0 0 0
4386 1 32.79085212541878 1.7017156667406976 1.6979909939970927 0 1 0
1756 1 32.790839249605945 1.7017211250402091 5.00199941856242 0 1 0
4554 1 38.01352253928561 2.365141433656999 1.6999925065623007 0 0 0
14145 2 39.073881954414574 3.5391222064543513 1.1453175684330867 0 0 0
14143 2 41.69810270222567 3.7916992624961874 1.1330373628268862 0 0 0
4009 1 40.311239303717514 4.52087569051987 1.7004211455730711 0 0 0
14146 2 40.1972519854981 6.112752963359237 1.15029641821372 0 0 0
7184 2 38.06326796620721 2.335728259043415 3.3499852310608733 0 0 0
1924 1 38.013529296657616 2.3651245077481082 5.000013590368952 0 0 0
6639 2 40.29918750248917 4.566857413815781 3.350000842840399 0 0 0
1379 1 40.31123587686857 4.520871021749352 4.999579839797757 0 0 0
10200 2 39.07389378126491 3.5391331589665733 5.554683920814914 0 0 0
10198 2 41.6981020687113 3.791699225707607 5.566962820605773 0 0 0
10201 2 40.19725191904587 6.112751774133324 5.5497046390719795 0 0 0
4008 1 43.11638870450862 3.1238075420770013 1.6993689346427407 0 0 0
14137 2 44.30310837103265 4.152663601511779 1.1287878819264172 0 0 0
4013 1 48.2302383706359 3.73675921303759 1.6994163876419677 0 0 0
14156 2 48.303775636803536 2.167562017531465 1.131681437676784 0 0 0
4005 1 45.465557450262274 5.208086765329831 1.6989171037112254 0 0 0
14136 2 46.90754939699266 4.5876242049717515 1.134201136530943 0 0 0
14138 2 45.215075437660765 6.783525131772438 1.1483933432301687 0 0 0
6638 2 43.13049953447355 3.08854533425716 3.3500055131247954 0 0 0
1378 1 43.116388198325424 3.123810673082933 5.00062449410743 0 0 0
6643 2 48.204012458813075 3.7201632074948052 3.3500060390442936 0 0 0
1383 1 48.23023040862385 3.7367658004720687 5.00057516970185 0 0 0
6635 2 45.447537444971104 5.248522110994636 3.35000720536139 0 0 0
1375 1 45.46554916954426 5.208085012084307 5.001077019327259 0 0 0
10192 2 44.3031119032943 4.152666382657635 5.571211122991978 0 0 0
10211 2 48.30377544570037 2.1675496090392623 5.568320064538673 0 0 0
10191 2 46.90755718691975 4.587619483067864 5.565799269293242 0 0 0
10193 2 45.2150757632019 6.783521065305778 5.551607538076495 0 0 0
14154 2 53.29863967086897 2.9067147425184987 1.681880420920042 0 0 0
14155 2 49.57083114808909 4.522034240581143 1.1120821920348565 0 0 0
4014 1 50.630290864868506 5.659768536739542 1.6940629803939038 0 0 0
14153 2 52.13074496120749 5.283947358336897 1.0690350616943558 0 0 0
4012 1 53.44443589484376 4.551066027298967 1.77006207626673 0 0 0
14148 2 50.18404819981672 7.170721922482647 1.161256230014071 0 0 0
6644 2 50.649065906148245 5.634319285583112 3.35000469456647 0 0 0
1384 1 50.63029145518163 5.659776227244981 5.005930580294177 0 0 0
6642 2 53.486647392351436 5.028561054302081 3.3500073244979593 0 0 0
1382 1 53.444438014903916 4.551062884075864 4.929931580996949 0 0 0
10209 2 53.298634101522325 2.9067321039569824 5.018121103656544 0 0 0
10210 2 49.570830314250514 4.5220313601337665 5.587921338188781 0 0 0
10208 2 52.13074564005128 5.283945788919874 5.630966285983269 0 0 0
10203 2 50.18404881548701 7.170719376541862 5.538743430149509 0 0 0
4001 1 58.57772190316662 3.8465514360813264 1.699309300216579 0 0 0
14130 2 58.10229595959207 2.3605360470325514 1.128204347594767 0 0 0
13255 2 54.89009614213193 4.996812411185049 1.0927557941197188 0 0 0
3405 1 56.20568610680546 5.81090328298746 1.697463367593111 0 0 0
13254 2 57.55852603246144 5.0293194076185825 1.1350851154762858 0 0 0
13256 2 56.11141625343398 7.352389661188668 1.1017356156855467 0 0 0
6631 2 58.54183454457953 3.8494576008222214 3.349981277041231 0 0 0
1371 1 58.577699702778936 3.846539536576754 5.000705518775923 0 0 0
6035 2 56.25869438378287 5.7975408772965125 3.3499935088560697 0 0 0
775 1 56.20569178401656 5.810901070945655 5.002542336797834 0 0 0
10185 2 58.10229826335832 2.360545627302004 5.571793115509263 0 0 0
9310 2 54.890092761333435 4.996810674289077 5.607244864270114 0 0 0
9309 2 57.55852393095161 5.029320340257974 5.564914173350331 0 0 0
9311 2 56.111415409552244 7.352398088326742 5.598264007175632 0 0 0
14129 2 60.10529043906744 4.142280696769895 1.1349192936577335 0 0 0
14866 2 62.73448836168701 3.951050052576422 1.133405063220998 0 0 0
4542 1 63.87956325757342 2.8516917921086926 1.7018250729875908 0 0 0
14864 2 65.34678755330145 3.4994259573039592 1.2017207184385372 0 0 0
4541 1 61.46683086832217 4.899161359363734 1.700406669905857 0 0 0
14867 2 61.394303554977256 6.4864044941704355 1.149938766596336 0 0 0
7172 2 63.830107949154296 2.8148843748940764 3.3500163920364137 0 0 0
1912 1 63.879554963454396 2.851688379285911 4.998159934855709 0 0 0
7171 2 61.53677607945188 4.949044152824174 3.350006128464145 0 0 0
1911 1 61.466783355128875 4.8991507119755395 4.999593197631678 0 0 0
10184 2 60.1053459401949 4.142303583711138 5.565076790849918 0 0 0
10921 2 62.734508577711715 3.951037512548362 5.56659908312233 0 0 0
10919 2 65.34678152412395 3.499421171441463 5.498285046179693 0 0 0
10922 2 61.394305890353536 6.486405059266868 5.550063295409266 0 0 0
14127 2 68.04190788956186 3.7570123158200484 1.13471306052172 0 0 0
4000 1 69.37908316042544 2.899319499443106 1.6970967315586085 0 0 0
14126 2 70.7779621964227 3.659227176514276 1.1525925554743146 0 0 0
4540 1 66.62804638476692 4.471467660272418 1.6999395553757572 0 0 0
14865 2 66.48700897063192 6.07023892204129 1.1541124526191255 0 0 0
6630 2 69.37692823771083 2.8935843495265523 3.3499931866792347 0 0 0
1370 1 69.3791425348392 2.8993204614248413 5.0029105073878 0 0 0
7170 2 66.66031999721358 4.520758864293247 3.350013970376606 0 0 0
1910 1 66.62805588810997 4.471478992017018 5.000042948209753 0 0 0
10182 2 68.04187576878881 3.7570289856140615 5.565295280382675 0 0 0
10181 2 70.7779348493467 3.659212564618765 5.5473963199503205 0 0 0
10920 2 66.48701052052358 6.070226523987078 5.545890277257249 0 0 0
14859 2 73.54901663437562 3.8551673572637655 1.1421708798963257 0 0 0
4537 1 74.88848052028972 2.9962366601862747 1.6986250038545778 0 0 0
14860 2 76.36921333306141 3.6367439279362426 1.1913159256045056 0 0 0
4538 1 72.10949380701071 4.533299378802996 1.6975905934318654 0 0 0
14862 2 71.98500839427139 6.1135878544950435 1.1383455383784105 0 0 0
7167 2 74.88378677690517 2.9994866932487296 3.3500269497803363 0 0 0
1907 1 74.88845622259105 2.9962395883028456 5.0013508528627835 0 0 0
7168 2 72.11248425235331 4.537408589858285 3.3499922622088634 0 0 0
1908 1 72.10946772850339 4.5332969395309615 5.002413761046234 0 0 0
10914 2 73.54904857600361 3.8551524224329152 5.5578288098565 0 0 0
10915 2 76.36921835268134 3.636744490640186 5.508688246032513 0 0 0
10917 2 71.98500985761717 6.113597977484118 5.5616530753993185 0 0 0
4042 1 80.51742908749935 2.8938479962084633 1.7011461938818087 0 0 0
14200 2 79.20194681402818 3.823812935319337 1.1672730387662753 0 0 0
14201 2 82.05954946161168 3.3502462624769085 1.1768288949023014 0 0 0
4539 1 77.7316007790428 4.488327728017214 1.7013627311174317 0 0 0
14863 2 77.54507449768295 6.0606556023102245 1.1339703247522932 0 0 0
7169 2 77.76176378203454 4.482154547514617 3.3500080393602953 0 0 0
6672 2 80.50723410292696 2.922415803490576 3.35000475055436 0 0 0
1412 1 80.5174348771041 2.893857776372814 4.998846706043979 0 0 0
1909 1 77.73160522024058 4.48833788902003 4.998628202673173 0 0 0
10255 2 79.20194706135922 3.8238109599579255 5.532727959289725 0 0 0
10256 2 82.05955432132491 3.3502439980548586 5.523169746452002 0 0 0
10918 2 77.54507428756276 6.060647383560282 5.566029728105826 0 0 0
4043 1 83.66778708917774 3.432884289368957 1.701677918287921 0 0 0
14203 2 84.66530614721465 2.1632121075777007 1.1880461500545192 0 0 0
4041 1 84.96698446517375 6.315159110768544 1.6983491691488253 0 0 0
14197 2 84.32036201456806 4.8711981068214065 1.132111260992137 0 0 0
14198 2 86.55104948450558 6.463800116352037 1.1646018099607802 0 0 0
4056 1 88.13485469749897 6.661948624160218 1.6984670212967345 0 0 0
6673 2 83.66123456183539 3.412403064701552 3.3500100484269426 0 0 0
1413 1 83.66776905639524 3.4328953192786402 4.998311272835095 0 0 0
6671 2 84.95293387759988 6.299189701544125 3.349996362222761 0 0 0
1411 1 84.96697973749515 6.315158889547345 5.001651597949934 0 0 0
1426 1 88.13484873348601 6.661949367380558 5.0015341771678345 0 0 0
6686 2 88.1218167918674 6.653130197946585 3.350001918573595 0 0 0
10258 2 84.66529979776323 2.1632169461016355 5.511961749679415 0 0 0
10252 2 84.3203620176643 4.871194876937825 5.567888691332864 0 0 0
10253 2 86.55106655503374 6.463801853161203 5.535398235616867 0 0 0
14222 2 89.60113302090167 2.753219167040584 1.1365690877336445 0 0 0
14223 2 94.27870747889267 3.406399827163827 1.1377886022345716 0 0 0
4057 1 90.14961080128955 4.227791654273358 1.698518727365466 0 0 0
14220 2 89.12177987601875 5.427625671548607 1.1338106702532724 0 0 0
14221 2 91.71571834885935 4.442825290346018 1.1402651552940113 0 0 0
4058 1 93.28582700972936 4.639123226437153 1.6982611130519312 0 0 0
14224 2 93.8802477980613 6.09612680103946 1.134872166360211 0 0 0
6687 2 90.15983718908464 4.247723037299516 3.3499986116549256 0 0 0
1427 1 90.14960888013776 4.22778669857029 5.001484434122928 0 0 0
6688 2 93.27576666208488 4.621638030649308 3.350011699792195 0 0 0
1428 1 93.28582706708669 4.639121081713385 5.001726798003268 0 0 0
10277 2 89.60114223303174 2.75323060681273 5.563429795201289 0 0 0
10278 2 94.27870862341638 3.4063984872601596 5.562210567024978 0 0 0
10275 2 89.12177881574067 5.427626522105917 5.5661897548311305 0 0 0
10276 2 91.71571669346726 4.442825033949797 5.559735244801499 0 0 0
10279 2 93.88024803585513 6.096127232088713 5.5651289512718884 0 0 0
4289 1 95.28136588719688 2.1847251961995737 1.6986417421384694 0 0 0
14535 2 96.84993715231947 2.378523615659454 1.1378334734297209 0 0 0
4519 1 98.41748033809954 2.58272694618229 1.698200856918421 0 0 0
14827 2 99.00102894859428 4.043882544160944 1.134109900433444 0 0 0
4518 1 99.58495352588784 5.507744443895811 1.6982603108472238 0 0 0
13304 2 98.59871897838539 6.737264954492594 1.1343061824756198 0 0 0
6919 2 95.29263331294507 2.201031224904185 3.3500028628872194 0 0 0
1659 1 95.28136765103902 2.1847349628418815 5.001352418809946 0 0 0
7149 2 98.4118596184241 2.561361160677509 3.3499973529120224 0 0 0
1889 1 98.4174803645156 2.582729794749166 5.001800833765275 0 0 0
7148 2 99.58935110902439 5.511556371567686 3.3499921871973055 0 0 0
1888 1 99.5850077980158 5.507743303979795 5.0017480320626175 0 0 0
10590 2 96.84993648293461 2.3785223329616256 5.5621682511942 0 0 0
10882 2 99.00102317129506 4.0438715535719005 5.565893645185149 0 0 0
9359 2 98.59870492579833 6.737282222781469 5.565700488388684 0 0 0
14936 2 4.02009821517495 8.737166907945928 1.1325371869650032 0 0 0
14935 2 6.378879084605625 7.433352030799593 1.1335781617535572 0 0 0
4851 1 3.216548640315543 10.084970779589002 1.6986408338124228 0 0 0
15265 2 3.9750661194976753 11.46522391041834 1.1325296631567312 0 0 0
4850 1 4.772050446279828 12.82428778618046 1.6976659290185114 0 0 0
14934 2 6.349126692688498 12.810246922912823 1.1311738012576733 0 0 0
4591 1 7.927821675414672 12.805033688981869 1.698392862236689 0 0 0
7481 2 3.215539361165802 10.103888119670213 3.3500015676168795 0 0 0
2221 1 3.2165525330753733 10.084973075092991 5.001358446068622 0 0 0
7480 2 4.777909094449491 12.829073361783943 3.3500055488190275 0 0 0
2220 1 4.772057295850923 12.824284780620845 5.0023273602979685 0 0 0
7221 2 7.899358780557761 12.794689597275335 3.3499983487086573 0 0 0
1961 1 7.927824502794618 12.805039937808475 5.001610135327584 0 0 0
10991 2 4.020095392893858 8.737172241584698 5.56746335010323 0 0 0
10990 2 6.378883524819882 7.433352950213105 5.566421272182802 0 0 0
11320 2 3.9750625550064256 11.465218432668633 5.567469240036352 0 0 0
10989 2 6.349123002384002 12.810247052444215 5.568825312127108 0 0 0
7223 2 7.934472493591374 7.5062629292044445 3.3499999396671867 0 0 0
4593 1 7.952194923778054 7.477399105742961 1.6988570199950752 0 0 0
1963 1 7.952192713645152 7.477399676336987 5.001142848456725 0 0 0
14937 2 8.777521945468187 8.81182493445177 1.1284362280850206 0 0 0
14933 2 8.766705189964442 11.477536291615838 1.1299140642583094 0 0 0
4594 1 9.603294112744235 10.146026415727599 1.6978359108246779 0 0 0
14242 2 11.186113849945567 10.130017524275553 1.1396538588451448 0 0 0
4070 1 12.762832242732062 10.2763468088695 1.6981984869355422 0 0 0
14243 2 13.401242721989059 11.706784069957989 1.132107881175253 0 0 0
7224 2 9.62758418981413 10.150913648818227 3.349999902656724 0 0 0
6700 2 12.730457936239162 10.260083329286088 3.350002982408669 0 0 0
1440 1 12.76283126389819 10.276351634040234 5.001797665144394 0 0 0
10992 2 8.777521707274852 8.811824363700646 5.571563405543167 0 0 0
10988 2 8.766706497357642 11.477534831300185 5.570086098725243 0 0 0
1964 1 9.603292843295065 10.146026857300601 5.002163458738968 0 0 0
10297 2 11.18611412954426 10.130017433381807 5.560346161270042 0 0 0
10298 2 13.40124083732083 11.706781106058259 5.567891613545173 0 0 0
3450 1 14.541606224996817 7.688513947578826 1.6979206585818791 0 0 0
13322 2 16.13451943350832 7.60437691880841 1.1482153251375484 0 0 0
4003 1 17.731586942583668 7.673148452763586 1.6979154711296236 0 0 0
13321 2 13.767030685130996 9.061494381667064 1.1382257504864675 0 0 0
14131 2 18.456784901969243 9.072168651690161 1.1330419084231254 0 0 0
4002 1 19.241708941515597 10.438751402398852 1.6987086549463972 0 0 0
4511 1 14.26552331448584 13.013867034486848 1.6980371960049763 0 0 0
14820 2 15.83553282580844 12.884748899490566 1.138065308251363 0 0 0
4512 1 17.405836647751038 13.01604264030279 1.6993378418798788 0 0 0
14133 2 18.374699792921245 11.762943954739976 1.1411798289379258 0 0 0
6080 2 14.577462269616795 7.676579453922626 3.3500012020877232 0 0 0
820 1 14.541605961335804 7.688513947261684 5.002079940190203 0 0 0
6633 2 17.696008397976087 7.6535650441842265 3.3499944136961086 0 0 0
1373 1 17.73158863428805 7.6731497857669355 5.002088488935251 0 0 0
6632 2 19.24936950896419 10.445530795329962 3.3499933035386538 0 0 0
1372 1 19.241707795135778 10.438743414978129 5.001297007353732 0 0 0
1881 1 14.265520136948693 13.013868827007807 5.001963545477086 0 0 0
7142 2 17.401466798442268 12.965654519543438 3.350001433168568 0 0 0
1882 1 17.4058304557642 13.016049161012969 5.000662754174269 0 0 0
9377 2 16.13451562143743 7.6043770832499975 5.551784784112822 0 0 0
9376 2 13.767034475791997 9.061488634845752 5.561774334663812 0 0 0
10186 2 18.456786601665023 9.0721728055925 5.566957240729927 0 0 0
10875 2 15.83554270427394 12.884748917704602 5.561934185929957 0 0 0
10188 2 18.374699691968317 11.762944107864316 5.5588222602215955 0 0 0
7141 2 14.272964094051856 13.035725391842371 3.3499976814562435 0 0 0
4553 1 24.00838674446912 7.6244635493367925 1.6971548988465006 0 0 0
14873 2 23.14290432978564 8.95027593201507 1.152098660726839 0 0 0
14132 2 20.82813424959438 10.468335527805174 1.138300557144979 0 0 0
4546 1 22.414917812396155 10.359349581330315 1.699425738430679 0 0 0
14874 2 23.338014988429798 11.66054283131126 1.1741072654242544 0 0 0
7183 2 23.996106167446083 7.611430812071335 3.349996558643577 0 0 0
1923 1 24.008400297808507 7.624460340633928 5.002850802253614 0 0 0
7176 2 22.386397149212733 10.340246168486173 3.349999037210862 0 0 0
1916 1 22.41491585596907 10.359353236767534 5.000576436126257 0 0 0
10928 2 23.14290199687679 8.950277876131954 5.547902523164434 0 0 0
10187 2 20.828139358589034 10.46833537709319 5.561699338885303 0 0 0
10929 2 23.338013913361486 11.660541544412519 5.52589147810742 0 0 0
14882 2 25.570763674405597 7.7187665639300755 1.1013692264997048 0 0 0
4552 1 27.12926502823463 7.840328443921705 1.6969678037955573 0 0 0
4549 1 28.516059604684607 10.586343882809361 1.7779347617012589 0 0 0
14877 2 27.874543555400003 9.208421912569232 1.0868119662369569 0 0 0
14142 2 29.975241210617703 11.149744839676377 1.1699358888007154 0 0 0
14876 2 27.347706621023423 11.75320321004589 1.6765635729568737 0 0 0
7182 2 27.07444509290391 7.919958604435789 3.3499923145637793 0 0 0
1922 1 27.129263530035175 7.840335928515863 5.003039201818301 0 0 0
7179 2 28.83309817095104 10.190107991828132 3.349997656625608 0 0 0
1919 1 28.516048979762246 10.5863423002173 4.922064978238496 0 0 0
10937 2 25.570752681228722 7.718765378881031 5.598627464798226 0 0 0
10932 2 27.87454315517097 9.208418839586894 5.613186182093098 0 0 0
10197 2 29.97525638716082 11.149746303049337 5.530064548184141 0 0 0
10931 2 27.347707866260755 11.753202473141481 5.0234353819326865 0 0 0
7526 2 31.997850443713816 7.693737216695666 3.3500072823577955 0 0 0
4896 1 32.025520186156776 7.741485799133488 1.7051045413264683 0 0 0
15327 2 35.97457814872019 8.06609644217855 1.1288983036620641 0 0 0
4007 1 31.543641503342215 10.83953055508823 1.7018638681533935 0 0 0
14141 2 31.925641759304355 9.307987075922957 1.1781634311124698 0 0 0
14139 2 32.66618817492816 11.92750431005008 1.1009096159566794 0 0 0
4006 1 33.84052291209137 12.956694996379362 1.7001584167773152 0 0 0
14140 2 35.35799663974734 12.577199803747797 1.1075955365878536 0 0 0
2266 1 32.02551807110216 7.741485714712908 4.994886368856563 0 0 0
6637 2 31.603826278006405 10.923035499174931 3.350006889169553 0 0 0
1377 1 31.543638756834838 10.839537646230823 4.9981342728202565 0 0 0
6636 2 33.8482763427963 12.864219375782701 3.349996934134666 0 0 0
1376 1 33.840513333396814 12.956707741509994 4.9998365315106925 0 0 0
11382 2 35.9745758112313 8.066094151262291 5.571101440195775 0 0 0
10196 2 31.92564164612529 9.307988127057973 5.521836888980293 0 0 0
10194 2 32.666176191679256 11.927493509045718 5.599089816643581 0 0 0
10195 2 35.35803739348837 12.577189874936355 5.592403801042616 0 0 0
4899 1 36.882306414634265 12.242215811517925 1.7014984337083643 0 0 0
2269 1 36.88228284255193 12.242221418352555 4.998510759220375 0 0 0
4903 1 37.21193970159198 9.054865589301691 1.700539046050231 0 0 0
15333 2 38.59313569647068 8.31981325088996 1.1302459209003075 0 0 0
4902 1 40.02901187862444 7.698370227134756 1.6995795829882312 0 0 0
15332 2 41.19567371555367 8.758935396142352 1.1317455089126318 0 0 0
15330 2 37.18484966163826 10.664047197789888 1.188824365097416 0 0 0
4901 1 42.348711011268804 9.835992726743736 1.698681094929599 0 0 0
15328 2 42.11591913882988 11.427076997171246 1.1598575753453622 0 0 0
4898 1 42.01000529141842 13.029858937480007 1.7001255566265148 0 0 0
7533 2 37.15852721146094 9.064993507940175 3.3499983220057086 0 0 0
2273 1 37.211939965991675 9.054864417242754 4.999461605595794 0 0 0
7532 2 40.0755006240569 7.6693255863224445 3.350000877826917 0 0 0
2272 1 40.02901198606476 7.698373412245819 5.000419380955694 0 0 0
7531 2 42.33592064377163 9.871904278802496 3.349993648078542 0 0 0
2271 1 42.34871063135735 9.83599013796077 5.0013248962781685 0 0 0
7529 2 36.90418387850058 12.26361739246479 3.349996773427298 0 0 0
7528 2 42.02150249947112 13.004114945286215 3.3500026140011085 0 0 0
2268 1 42.010007909147056 13.02985816140463 4.999872114754898 0 0 0
11388 2 38.59313602608705 8.31981301832096 5.569754660565794 0 0 0
11387 2 41.19567304965827 8.758934971752039 5.568254037139528 0 0 0
11385 2 37.18484954046702 10.664047495418563 5.511176957976598 0 0 0
11383 2 42.115918536380434 11.42707877927871 5.540142659409213 0 0 0
4557 1 45.13762393836028 8.374592333367346 1.6987892287128288 0 0 0
14889 2 43.78802080661844 9.19173644812542 1.1403253324179277 0 0 0
14890 2 46.43728018162906 9.252652993925167 1.1245474720759823 0 0 0
4558 1 47.65207950287976 10.245943694983955 1.6982292791384845 0 0 0
14886 2 47.43445885783352 11.80520686177381 1.1339566012679572 0 0 0
7187 2 45.131638498132915 8.341827595119035 3.3499962506744816 0 0 0
1927 1 45.13762398601338 8.374598712464739 5.001214377468078 0 0 0
7188 2 47.63727162177944 10.259776691561317 3.3500006764152235 0 0 0
1928 1 47.6520781858749 10.24594352175124 5.00177063160433 0 0 0
10944 2 43.78802220975752 9.191735125337011 5.559674668079407 0 0 0
10945 2 46.43727943498404 9.252652211292451 5.575451907448643 0 0 0
10941 2 47.43445796549793 11.805204571740573 5.566043268655012 0 0 0
4010 1 50.379708154335056 8.733565058116609 1.7004714553562459 0 0 0
14147 2 49.108966251582096 9.657668931009983 1.1379675576939858 0 0 0
14149 2 51.84390209480671 9.296476560883002 1.135355288323132 0 0 0
4868 1 53.09994630149183 10.23412786516263 1.6985299042761257 0 0 0
15287 2 52.83911279963771 11.781466755243104 1.1333021509110515 0 0 0
1380 1 50.37970734547008 8.733564831621274 4.999522606371396 0 0 0
6640 2 50.37831001092886 8.766997626287795 3.350006778956473 0 0 0
7498 2 53.14997999922264 10.223606221850448 3.349998476730378 0 0 0
2238 1 53.099947540873096 10.234128871983621 5.0014711375554475 0 0 0
10202 2 49.108966846109276 9.6576688541778 5.562032502625691 0 0 0
10204 2 51.84390219930729 9.296476773665947 5.564645635677118 0 0 0
11342 2 52.839112127304084 11.781466503005158 5.566697662783306 0 0 0
4870 1 55.92204220257534 8.88585213284752 1.7065938360542499 0 0 0
14871 2 59.95755087575026 8.962188872773732 1.1179757963816856 0 0 0
15290 2 54.54690004871054 9.628546427366663 1.1114992606946625 0 0 0
15292 2 57.2666507290702 9.71871269205208 1.2114401760169826 0 0 0
4871 1 58.819350519055746 10.060356227918003 1.7034621525546818 0 0 0
15291 2 58.9980226791481 11.638157871581864 1.1449693839522705 0 0 0
7500 2 55.82515171731673 8.85434311463474 3.349993173188032 0 0 0
2240 1 55.9220428315752 8.885844858504498 4.9934135202546726 0 0 0
2241 1 58.819348345202805 10.060368498455526 4.996538764599597 0 0 0
7501 2 58.946742716270656 10.013843339707956 3.3499996883678387 0 0 0
7499 2 58.03457801007212 12.785075487150065 3.3499898318479824 0 0 0
10926 2 59.95755530574109 8.962186208618444 5.582025988301418 0 0 0
11345 2 54.546898003578306 9.628547716805187 5.58850158854441 0 0 0
11347 2 57.266651390582744 9.718712245938185 5.488561129424429 0 0 0
11346 2 58.9980254343477 11.638144905309971 5.555030675746523 0 0 0
4544 1 61.27074602974961 8.072975430296234 1.7012232014959305 0 0 0
14872 2 62.629098810769676 8.861475418666 1.159998599969847 0 0 0
14870 2 65.30373133083306 8.644059104019691 1.1288179764738686 0 0 0
4545 1 64.02504069843566 9.576454971713837 1.7016806966853524 0 0 0
14847 2 63.96663446785386 11.15722593217778 1.1297153613233077 0 0 0
4530 1 63.771439793480354 12.7271376940213 1.6997152507209663 0 0 0
7174 2 61.18380225975401 8.030482454620294 3.350011497877804 0 0 0
1914 1 61.27075637432708 8.072984908441883 4.998769865545213 0 0 0
7175 2 64.12024648079239 9.608734759134089 3.34999167484188 0 0 0
1915 1 64.0250848175273 9.576473874515958 4.998318851352072 0 0 0
7160 2 63.72515652738349 12.652714889391852 3.349991728653919 0 0 0
1900 1 63.77143727326683 12.727135137503492 5.000295517813188 0 0 0
10927 2 62.62904551649895 8.861446914940897 5.540008290488606 0 0 0
10925 2 65.30373250047427 8.644056091595916 5.571176979932266 0 0 0
10902 2 63.96663299311392 11.157225037686366 5.570282258444469 0 0 0
7173 2 66.51708932748413 7.657478863648254 3.3499999821981747 0 0 0
4543 1 66.555094295894 7.671681455754819 1.6976015676459066 0 0 0
14869 2 67.96584930753853 8.381520255162764 1.1432680090819083 0 0 0
15316 2 70.65012369221104 8.549009141909517 1.1475625853165188 0 0 0
4890 1 69.25060716789375 9.299825041544517 1.6988183377234733 0 0 0
15317 2 69.1001466173757 10.887762522085461 1.147520590721865 0 0 0
4891 1 69.05940930306069 12.481334289537958 1.6986031831315067 0 0 0
1913 1 66.55510276903128 7.671705500001554 5.002405649179394 0 0 0
7520 2 69.27296918905101 9.331477021914754 3.350000646722267 0 0 0