LAMMPS data file via write_data, version 23 Jun 2022, timestep = 6812

15564 atoms
2 atom types

4.446921365000108 200.58110268781346 xlo xhi
4.902742035158267 171.64557850405674 ylo yhi
-100 100 zlo zhi

Masses

1 28.085
2 15.999

Atoms # full

9346 1 2 0 6.084327551636192 6.103403549865836 -2.19246433856034 0 0 0
6818 1 1 0 11.668882872212127 5.235677525162119 -1.5549222250006478 0 0 0
9614 1 2 0 12.238473767906404 6.578911605935261 -2.2340311851245587 0 0 0
9616 1 2 0 15.373525265084119 5.473349300895522 -2.0470583194219123 0 0 0
6823 1 1 0 16.759230278127948 6.317614494800487 -1.6136877643771146 0 0 0
6831 1 1 0 22.92242046594866 5.491857218165038 -1.638735022766775 0 0 0
9632 1 2 0 22.51765875433231 7.024340059606245 -2.1091610953409052 0 0 0
9636 1 2 0 24.47496353576748 5.088734615546394 -2.0311762742141313 0 0 0
6838 1 1 0 26.075349779658872 4.9879064933986506 -1.6263433500674713 0 1 0
9645 1 2 0 26.85225070310888 6.383362149729756 -2.086520689027861 0 0 0
6839 1 1 0 32.72741773500416 6.961060660185743 -1.619870603263855 0 0 0
9650 1 2 0 32.80566206909032 5.383171817154648 -2.108836947390314 0 0 0
6852 1 1 0 38.73643953822454 5.67078931778614 -1.637178828673302 0 0 0
9665 1 2 0 38.423667385645 7.165211933225633 -2.153850278568654 0 0 0
9672 1 2 0 40.240278848504474 5.411291295656534 -2.1806362286012777 0 0 0
6857 1 1 0 41.7010225803672 5.014847027761173 -1.6156582098244816 0 0 0
9677 1 2 0 43.02804576010729 5.769384896301811 -2.148202851018347 0 0 0
6855 1 1 0 44.50270140275269 6.200484738884418 -1.6492697146377457 0 0 0
9678 1 2 0 45.75225350728733 5.29869569668097 -2.143229404988459 0 0 0
6859 1 1 0 50.998384302372195 6.58576720261584 -1.6386680547281796 0 0 0
9684 1 2 0 50.5760101643063 5.058763871949651 -2.0965499826269136 0 0 0
9683 1 2 0 52.57608155405631 6.492309689006032 -2.1528016495656264 0 0 0
6862 1 1 0 54.14629550982094 6.343075956943109 -1.6219216158921517 0 0 0
9690 1 2 0 55.13085122679494 5.0367738008104155 -1.9899492689734584 0 0 0
6871 1 1 0 59.31853689412724 5.59063171753155 -1.6250594218993248 0 0 0
9702 1 2 0 59.64297731847637 7.187410268074896 -2.0188599174816986 0 0 0
9705 1 2 0 60.840278248627634 5.113935076359844 -2.149166153918434 0 0 0
9712 1 2 0 63.74935021708434 5.609310221985962 -2.03421511005591 0 0 0
6876 1 1 0 65.29884774049235 6.033435096947134 -1.633623097204926 0 0 0
9713 1 2 0 66.60403216434634 5.155608060414914 -2.1316395293414034 0 0 0
6888 1 1 0 73.82388500868123 5.5445280797741505 -1.6447811483419845 0 0 0
9730 1 2 0 73.847963718041 7.111536406978903 -2.1615856046416777 0 0 0
6904 1 1 0 81.911708584837 5.60668891009072 -1.6286636744957157 0 0 0
9751 1 2 0 81.9529175290769 7.190515735234975 -2.1382825964840353 0 0 0
9759 1 2 0 83.43997363816725 5.236612421247789 -2.0932556244721905 0 0 0
9767 1 2 0 86.32990982337056 5.097897694173497 -2.1517860553317143 0 1 0
6909 1 1 0 87.88110018393796 5.269259682190765 -1.6487295568577174 0 0 0
9764 1 2 0 88.57566071518204 6.65184391494932 -2.1494538069658833 0 0 0
9771 1 2 0 93.57749737421582 6.1688270471976665 -2.1287745855557367 0 0 0
6915 1 1 0 94.64055252450123 5.030630435109243 -1.627584214113219 0 1 0
9778 1 2 0 96.20838957412502 5.139404466382443 -2.0890601430884246 0 1 0
9783 1 2 0 98.7864296263473 6.073329489015057 -2.1145612546236476 0 0 0
9342 1 2 0 6.197383721507488 8.858142283803105 -2.176312029641407 0 0 0
6638 1 1 0 6.760204580217859 7.4438324082089355 -1.654360783353436 0 0 0
9347 1 2 0 8.273570661971435 7.604566455291479 -2.1323717655899554 0 0 0
6661 1 1 0 9.541006076451584 8.380821684226056 -1.5754845830899753 0 0 0
9382 1 2 0 11.018795527205931 8.160759140338154 -2.1369804665758525 0 0 0
6821 1 1 0 12.548166602763192 8.029834977489635 -1.5909547458463364 0 0 0
9618 1 2 0 13.47217667729827 9.26575974994795 -1.9417653897405271 0 0 0
9620 1 2 0 17.168540067759157 7.865764557127692 -2.1223647495518096 0 0 0
6822 1 1 0 17.645907377055874 9.406311694502374 -1.6443822382549633 0 0 0
9631 1 2 0 21.420401505310092 9.754205697825734 -2.086040762766306 0 0 0
6829 1 1 0 22.476058880417618 8.593223560597703 -1.5932449723446247 0 0 0
9633 1 2 0 23.896688819607988 9.265025332576787 -1.9983248982481074 0 0 0
9641 1 2 0 26.4158080080534 9.158423178386531 -2.0668174861562756 0 0 0
6837 1 1 0 27.37547064186824 7.891233943242638 -1.6306840703970031 0 0 0
9646 1 2 0 28.869251209780735 8.337063667300903 -2.1597890762535576 0 0 0
6840 1 1 0 30.30139269414245 8.96127258601617 -1.6413248671679073 0 0 0
9648 1 2 0 31.473180572705896 7.903899069953057 -2.1074646442752027 0 0 0
9649 1 2 0 34.107148077311244 7.757986762352629 -1.9883979521410997 0 0 0
6841 1 1 0 35.067547255191684 9.017504956499723 -1.6113695715370668 0 0 0
9653 1 2 0 36.604186121694624 8.90649528943147 -2.106676578381509 0 0 0
6848 1 1 0 38.13085626289992 8.662639366691964 -1.631239496396762 0 0 0
9664 1 2 0 39.20976606430521 9.748349006414069 -2.181533579918066 0 0 0
9674 1 2 0 44.91662243003432 7.6626266393585425 -2.160691433786795 0 0 0
6854 1 1 0 45.70727413610028 8.960770505773539 -1.6252774939043177 0 0 0
9676 1 2 0 47.27675905219767 8.766713106354048 -2.0465346642056748 0 0 0
6858 1 1 0 48.85347695151631 8.978125559793702 -1.624722093531496 0 0 0
9681 1 2 0 49.95554033877765 7.813345078545956 -2.108390586247519 0 0 0
9687 1 2 0 54.66936767246413 7.81195043828968 -2.1253176880469367 0 0 0
6861 1 1 0 54.97481301598723 9.325973013244248 -1.608218873695763 0 0 0
9689 1 2 0 56.53071703348801 9.610306791252194 -1.967780642617259 0 0 0
6870 1 1 0 60.304258977641176 8.666291571873016 -1.6293060719398713 0 0 0
9700 1 2 0 59.18479457175805 9.71277036517505 -2.163523762112863 0 0 0
9703 1 2 0 61.73749496814255 9.33916660371013 -2.1096518561811215 0 0 0
9709 1 2 0 65.60824019933068 7.543665972576705 -2.1672030406704623 0 0 0
6874 1 1 0 65.77918703809586 9.065753095181599 -1.6157372636309935 0 0 0
9728 1 2 0 72.60510285564685 9.571575557601637 -2.103632948034012 0 0 0
6887 1 1 0 73.92480961661278 8.674598637196903 -1.640612043529275 0 0 0
9731 1 2 0 75.39188096936093 9.295635844414 -2.0903385254468367 0 0 0
9749 1 2 0 80.9891755771877 9.635404641858575 -2.0952694303876913 0 0 0
6899 1 1 0 82.28536005875655 8.739504696779795 -1.6294048106259447 0 0 0
9750 1 2 0 83.73413269214524 9.463174454543928 -2.0416487136110026 0 0 0
6907 1 1 0 89.56397390728209 7.83480561353421 -1.623252755868665 0 0 0
9763 1 2 0 88.9682538685889 9.280810295170308 -2.0851389584560027 0 0 0
6911 1 1 0 92.6688266059565 7.433428750357972 -1.6330855486472675 0 0 0
9765 1 2 0 91.10211486853544 7.521873333883181 -2.087524763643319 0 0 0
9770 1 2 0 93.50336226817572 8.717605602737589 -2.1727504934487203 0 0 0
9773 1 2 0 95.9878499352713 9.765884651622182 -2.1020390112461826 0 0 0
6918 1 1 0 99.50798393429588 7.456918818396476 -1.6254039007897592 0 0 0
9782 1 2 0 98.490308588851 8.61761453599577 -2.141303019359948 0 0 0
9183 1 2 0 101.04649039217234 7.792919613082807 -2.085149603760025 0 0 0
6635 1 1 0 5.453618393646072 10.162393019463629 -1.6195327487297753 0 0 0
9341 1 2 0 5.809210141138441 11.618762812799176 -2.1807002725731865 0 0 0
6660 1 1 0 10.427442410721488 11.248301538978149 -1.597408190986317 0 0 0
9380 1 2 0 9.499557626030079 9.960809013817368 -1.8058879858238828 0 0 0
6820 1 1 0 13.410232642878617 10.834812635953934 -1.643721155973422 0 0 0
9381 1 2 0 11.934614134763113 11.221524135486918 -2.1582568402342144 0 0 0
9619 1 2 0 14.637960573552569 11.687077916751225 -2.1881630314873988 0 0 0
6824 1 1 0 16.086657471855847 12.146705595432062 -1.6460748478741098 0 0 0
9621 1 2 0 16.850666251131255 10.772510697000472 -2.137274048865095 0 0 0
9622 1 2 0 19.05157349048554 10.137479508465352 -2.1563645744622972 0 0 0
6830 1 1 0 20.392964294744242 10.966590357289041 -1.6235510024047377 0 0 0
6834 1 1 0 25.193699430692575 10.155099596943515 -1.5977353778661436 0 0 0
9640 1 2 0 24.984697453174366 11.706954676514846 -2.129020246698731 0 0 0
9651 1 2 0 30.557296009039927 10.533757508516853 -2.097249703983654 0 0 0
6843 1 1 0 31.102231177635776 12.016451301701382 -1.6042994225339244 0 0 0
9654 1 2 0 32.668556992936566 12.204134394030323 -1.9970995910528389 0 0 0
9652 1 2 0 34.57827698530072 10.464658600102972 -2.1655926373492638 0 0 0
6842 1 1 0 34.216931500904074 11.948272031412209 -1.6135722594433477 0 0 0
6849 1 1 0 40.30550316717937 10.824565022768494 -1.6387876671976829 0 0 0
9667 1 2 0 41.85076801564712 10.506467182052019 -2.0490668982657128 0 0 0
6856 1 1 0 43.364150180095066 10.94252490480706 -1.6195167391914798 0 0 0
9675 1 2 0 44.700623035880405 10.148388535907891 -2.1182443326332363 0 0 0
9682 1 2 0 48.92812218321446 10.54570366048291 -2.160858910459407 0 0 0
6860 1 1 0 48.78752468563825 12.097313974709943 -1.622428321081843 0 0 0
9688 1 2 0 54.0203649779414 10.585449323087705 -2.0449106838372146 0 0 0
6863 1 1 0 53.75201686132247 12.139180675466381 -1.617993935510374 0 0 0
6869 1 1 0 57.867593910519425 10.448215287151122 -1.6063178587124685 0 0 0
9701 1 2 0 57.58818283913478 11.962340553125431 -2.05997558993204 0 0 0
6875 1 1 0 62.928618001923844 10.371222133566027 -1.6171969504870374 0 0 0
9711 1 2 0 63.01616816921485 11.95111098998767 -2.0714915485869247 0 0 0
9708 1 2 0 64.41085578325966 9.836197990398622 -2.037834715805567 0 0 0
9710 1 2 0 67.14203980642522 9.824467413574286 -2.1049827595124477 0 0 0
6880 1 1 0 68.31897636207525 10.86307856283045 -1.6385572868731477 0 0 0
9719 1 2 0 69.84489133634622 10.466303349587847 -2.1179407990274783 0 0 0
6886 1 1 0 71.41455254130078 10.626956093601322 -1.631939917095843 0 0 0
9729 1 2 0 71.73700029926744 12.17923413629243 -2.07156970222735 0 0 0
6896 1 1 0 76.67612228758018 10.216966516958182 -1.6093043989565823 0 0 0
9745 1 2 0 76.30580300439051 11.743023213984413 -2.0332302938525575 0 0 0
9746 1 2 0 78.2539214745726 10.146868955736412 -2.1074019043577423 0 0 0
6900 1 1 0 79.76667038251104 10.621423709250697 -1.627945828486614 0 0 0
9752 1 2 0 80.15213519425353 12.168385518814532 -2.0345143550688527 0 0 0
6901 1 1 0 84.93761235143523 10.540728526007962 -1.618807629000514 0 0 0
9753 1 2 0 84.62108191084837 12.087736184722234 -2.0482013273963875 0 0 0
9754 1 2 0 86.51481399687034 10.420418676658414 -2.1418767659044406 0 0 0
6908 1 1 0 88.0885889359959 10.580883288670211 -1.625398449157474 0 0 0
9766 1 2 0 88.9498783509179 11.932021672771425 -2.04094977526876 0 0 0
6912 1 1 0 94.44197980089399 9.917825072734276 -1.6171528690771841 0 0 0
9772 1 2 0 93.72407590435397 11.300833867587242 -2.0608950154138874 0 0 0
6919 1 1 0 97.53858033555538 9.82455202471486 -1.6151285035130485 0 0 0
9784 1 2 0 98.21223778409285 11.225529593900808 -2.0557482190024774 0 0 0
6636 1 1 0 5.815907729356954 13.123727369718537 -1.6213710319738734 0 0 0
9343 1 2 0 4.554771001897141 13.960541813793592 -2.1183143113172576 0 0 0
6659 1 1 0 8.745091468208276 13.659276188668734 -1.6257320469819303 0 0 0
9344 1 2 0 7.21804269714093 13.724930258175416 -2.0464861707246484 0 0 0
9378 1 2 0 9.57293196184312 12.43792606781764 -2.2019000513180003 0 0 0
9624 1 2 0 16.135016880506402 13.720460760644542 -2.110981753588285 0 0 0
9634 1 2 0 20.774390303534627 12.553010397033294 -2.065556115432442 0 0 0
6836 1 1 0 21.520170986619714 14.019339249665153 -1.6230385438228956 0 0 0
9642 1 2 0 23.14546361517255 13.826410794419866 -1.9775491788413253 0 0 0
6835 1 1 0 24.673477985655147 13.255984747839094 -1.6267274693844918 0 0 0
9643 1 2 0 25.91574168480357 14.231601496417628 -2.1380854180053603 0 0 0
9656 1 2 0 30.545871521860015 13.474112280816337 -2.1450927364705534 0 0 0
9655 1 2 0 35.197051061133735 13.132721828329574 -2.145827875089935 0 0 0
6850 1 1 0 36.2698588796446 14.247729580738696 -1.641713452383151 0 0 0
9668 1 2 0 37.77344686459628 13.930655981393711 -2.173056957952797 0 0 0
6851 1 1 0 39.29189566842206 13.760382702905789 -1.616701669097613 0 0 0
9666 1 2 0 39.92153458083851 12.3399710078611 -2.1025693370203005 0 0 0
9679 1 2 0 43.43711542592308 12.494974273171865 -2.066482782796086 0 0 0
6867 1 1 0 43.82786912694166 13.994053052608555 -1.6194920211931512 0 0 0
9697 1 2 0 45.305503719232824 14.29111956513564 -2.1850558092603505 0 0 0
6868 1 1 0 46.8082715106671 14.520570255564744 -1.6424457181884036 0 0 0
9686 1 2 0 47.644964290559045 13.181463786663052 -2.086522545652154 0 0 0
9685 1 2 0 50.082983385740164 12.931839919233234 -2.106511586186793 0 0 0
6864 1 1 0 51.278861070553 13.911636686955704 -1.64171868004196 0 0 0
9691 1 2 0 52.54932595182343 13.061364109860387 -2.197955236834104 0 0 0
9692 1 2 0 55.10382139936971 12.897193790402104 -2.039130675741825 0 0 0
6873 1 1 0 56.6274304505972 13.16335221411275 -1.615642475705404 0 0 0
9707 1 2 0 56.938173604024364 14.601800281814917 -2.2194768404235536 0 0 0
6882 1 1 0 63.757631471148656 13.343123586303188 -1.6208576058292337 0 0 0
9720 1 2 0 65.3448487700562 13.264008868412324 -1.9953063856510644 0 0 0
6881 1 1 0 66.88803283386954 13.63367861995966 -1.6093370614744011 0 0 0
9718 1 2 0 67.87144254629779 12.392067093623062 -2.0424097142491187 0 0 0
6892 1 1 0 72.55854469174984 13.52931328873431 -1.63622164871704 0 0 0
9739 1 2 0 74.067646582808 13.23041413481785 -2.148751697305278 0 0 0
6897 1 1 0 75.58751735468492 13.12260128534537 -1.6046740611545955 0 0 0
9747 1 2 0 76.39314043959075 14.439633306652526 -2.0789468976904413 0 0 0
6902 1 1 0 80.99047323644952 13.515839725378989 -1.619522665724284 0 0 0
9755 1 2 0 82.53908239834784 13.548241589611491 -2.1167552693561587 0 0 0
6903 1 1 0 84.08627450159393 13.564728108482896 -1.6170796770230516 0 0 0
6913 1 1 0 90.0426972389604 13.109002418895628 -1.6341673315074534 0 0 0
9775 1 2 0 89.48187222256615 14.5746033505033 -2.126683026857943 0 0 0
9774 1 2 0 91.61071105304647 12.936987358734234 -2.1545217210468515 0 0 0
6914 1 1 0 93.1685587506578 12.76293672910804 -1.6171158001120525 0 0 0
9776 1 2 0 94.41216298820278 13.737670515102568 -2.0846898488015313 0 0 0
9786 1 2 0 97.23940271240272 13.637170838934278 -2.1157941865647887 0 0 0
6967 1 1 0 95.85690468473427 14.388995531227874 -1.639201813179271 0 0 0
6921 1 1 0 98.53157905055804 12.753191901136834 -1.6216171280739555 0 0 0
9353 1 2 0 100.0550714311086 13.05088334038817 -2.16298759693135 0 0 0
6642 1 1 0 101.60527964311503 13.143532982898247 -1.6238014451666614 0 0 0
9351 1 2 0 102.30165325910289 14.518959538688422 -2.129651235409062 0 0 0
6686 1 1 0 9.809838661055416 16.390974912623122 -1.6190371322081278 0 0 0
9379 1 2 0 9.396868468652988 14.97480365272374 -2.1913119619770027 0 0 0
9421 1 2 0 11.304411577404235 16.433203122326255 -2.1875683420418452 0 0 0
9449 1 2 0 13.943610203434105 15.415616436482484 -1.9075994561849967 0 0 0
6704 1 1 0 12.793919245353132 16.523304652640615 -1.6124363201731897 0 0 0
6932 1 1 0 15.530639939504866 15.162374738510133 -1.6116081606649948 0 0 0
9804 1 2 0 16.151577075171787 16.627602677418658 -2.0101297735705246 0 0 0
9644 1 2 0 20.93394244576127 15.585705259834247 -2.056765260565014 0 0 0
6938 1 1 0 27.05893494593001 15.323580081357067 -1.6521429157737544 0 0 0
9813 1 2 0 26.624230896486562 16.81526322768866 -2.1512027650855194 0 0 0
9811 1 2 0 28.630241419260813 15.170192506913187 -2.129518649688679 0 0 0
6937 1 1 0 30.201854095108384 15.013537098318752 -1.6437392911016033 0 0 0
9812 1 2 0 31.276630680277254 16.219180602959568 -2.0857792723512123 0 0 0
9669 1 2 0 35.88401061378078 15.749027434201155 -2.1219912296577976 0 0 0
9670 1 2 0 40.18337058471721 15.064760486610279 -2.006367808932087 0 0 0
6945 1 1 0 41.485356095229385 15.961581988466051 -1.6212618479935632 0 0 0
9698 1 2 0 42.773948578526195 15.113864751448949 -2.118234008823488 0 0 0
9699 1 2 0 47.15137782040641 16.040759891981352 -2.1521850832174705 0 0 0
6950 1 1 0 50.63266319497879 16.932125443678935 -1.6147262042436756 0 0 0
9693 1 2 0 51.08263974036568 15.451393986786814 -2.14858656779211 0 0 0
9838 1 2 0 55.85564280531686 17.043166326087732 -1.9914318617887288 0 0 0
6954 1 1 0 57.083027886085304 16.071551242781794 -1.624277219854381 0 0 0
9837 1 2 0 58.53429708716614 16.549237269768692 -2.112732870173836 0 0 0
9839 1 2 0 61.18710616082096 16.738787994406145 -2.1936873249313216 0 0 0
6955 1 1 0 62.61500760804139 16.20488179058642 -1.6350797137605495 0 0 0
9722 1 2 0 63.105203030622306 14.741470657897803 -2.159225663308841 0 0 0
9721 1 2 0 67.17016573675089 15.157147252710601 -2.1542787613672525 0 0 0
6893 1 1 0 67.23596029258154 16.707552182809817 -1.627480458990957 0 0 0
9738 1 2 0 72.19237473127401 15.065652197603185 -2.0913794010281515 0 0 0
6894 1 1 0 72.27761328651921 16.645190625698174 -1.640645722614863 0 0 0
9846 1 2 0 75.88801085560576 17.10547073138104 -2.121050607233594 0 0 0
6959 1 1 0 76.8472464469366 15.918805339674241 -1.6234518384931562 0 0 0
9845 1 2 0 78.3177821641049 16.2803614928217 -2.161101277199656 0 0 0
6960 1 1 0 79.83893132190923 16.372318714482336 -1.6379597111294697 0 0 0
9756 1 2 0 80.44914288367009 14.956652155625116 -2.16271945300697 0 0 0
9757 1 2 0 84.98090025094854 14.830545394478408 -2.157540021715664 0 0 0
6961 1 1 0 85.73763748247832 16.191508168457986 -1.6292104940178849 0 0 0
9848 1 2 0 87.32221961103791 16.21510426147324 -2.0446684378181965 0 0 0
6962 1 1 0 88.89319682917115 16.021539833075277 -1.6174700841810734 0 0 0
9857 1 2 0 95.91903114757656 15.928034495803653 -2.1790512734314462 0 0 0
9415 1 2 0 6.015852700815716 17.913507750821886 -2.154321929385949 0 0 0
6682 1 1 0 4.505281760126362 17.47675285556047 -1.6559242507061163 1 0 0
6685 1 1 0 7.491735693359046 18.39824165474292 -1.6061287048256208 0 0 0
9419 1 2 0 8.618801406870238 17.345080736802387 -2.0993564303846117 0 0 0
9420 1 2 0 8.51332428477637 19.59403144995398 -2.110753209437248 0 0 0
9448 1 2 0 13.147206148269401 18.023026113785846 -2.117803983156416 0 0 0
6972 1 1 0 16.022253066370734 18.222145762890378 -1.6378448878282652 0 0 0
9450 1 2 0 14.592146876756951 18.82736709148337 -2.1832390494262133 0 0 0
9864 1 2 0 17.270261952187674 19.082846855036337 -2.1750297178552196 0 0 0
6971 1 1 0 20.755462590701324 17.252612151655857 -1.6153197203463165 0 0 0
9862 1 2 0 19.68571057347681 18.53584441867929 -2.0354682654424634 0 0 0
9863 1 2 0 22.14687982836287 18.051244009547602 -2.0391719862376987 0 0 0
6978 1 1 0 23.279952355530924 19.172998182979082 -1.617850804146211 0 0 0
9870 1 2 0 24.789978660737532 18.719263118600807 -2.0640111713496987 0 0 0
6977 1 1 0 26.311163791570454 18.322662818315056 -1.6101775501249926 0 0 0
9871 1 2 0 27.513670790722124 19.361757239513146 -2.0278718266748155 0 0 0
6940 1 1 0 32.33583661816052 17.431201569841 -1.613562504495165 0 0 0
9816 1 2 0 31.83275183340341 18.952988618692604 -2.001760532229033 0 0 0
9814 1 2 0 33.91310812542217 17.41482639764996 -2.1409931898829777 0 0 0
6939 1 1 0 35.485994152066624 17.25133127701136 -1.636507222584784 0 0 0
9815 1 2 0 36.69036220203611 18.295929433910004 -2.091071498770191 0 0 0
6983 1 1 0 37.86568084083761 19.370272872629947 -1.6272143988087528 0 0 0
9878 1 2 0 39.44549289188997 19.14908031809358 -2.0622870082575697 0 0 0
6982 1 1 0 41.039825973747284 19.01854739836936 -1.6316263829569588 0 0 0
9824 1 2 0 41.43079045596236 17.507582723444408 -2.147905773302906 0 0 0
9833 1 2 0 46.95247020580334 18.943124639169458 -2.151153625721907 0 0 0
6951 1 1 0 47.596794932788704 17.52814016898987 -1.616126463734951 0 0 0
9831 1 2 0 49.15410008624445 17.42210978602423 -2.054946303537202 0 0 0
9832 1 2 0 51.54281730137988 18.181321146182068 -2.104086338674583 0 0 0
6986 1 1 0 52.44711770456351 19.445641247807956 -1.6395475059162334 0 0 0
9881 1 2 0 53.91546440001671 19.040050343509765 -2.196970730784279 0 0 0
6985 1 1 0 55.32291270152871 18.51468957274605 -1.6115326119059448 0 0 0
9882 1 2 0 56.59715551523418 19.399504732197016 -2.0600521308114654 0 0 0
9841 1 2 0 59.313834668042944 18.878793968696954 -1.9322606597446235 0 0 0
6956 1 1 0 59.81932373127384 17.370161665673386 -1.6085932372149847 0 0 0
9840 1 2 0 63.57322585426058 17.428958370380673 -2.079403969891041 0 0 0
6987 1 1 0 64.68845369211515 18.49948244413157 -1.6127823198324156 0 0 0
9741 1 2 0 66.0503023528104 17.73542849879101 -2.071873297277225 0 0 0
9740 1 2 0 68.53948142235892 17.508079611535695 -2.1444329952959937 0 0 0
6895 1 1 0 69.77888773850701 18.39827855253526 -1.6186997274501131 0 0 0
9742 1 2 0 71.05366162304617 17.568061957670704 -2.182321267000455 0 0 0
9743 1 2 0 73.53352249674876 17.57787193612557 -2.124014545553961 0 0 0
6990 1 1 0 74.91395462578866 18.28505343495714 -1.6027993927728812 0 0 0
9847 1 2 0 80.52002456388661 17.767718656824275 -2.1141720793486694 0 0 0
6991 1 1 0 81.10745102902816 19.21142849319897 -1.623573504459908 0 0 0
9889 1 2 0 82.67746146056211 19.198562222051056 -2.1293897662649846 0 0 0
9849 1 2 0 84.91149567878455 17.5245841682512 -2.1146195660246936 0 0 0
6992 1 1 0 84.22764946042028 18.938966228060885 -1.643734712718299 0 0 0
9850 1 2 0 89.76926675953598 17.317145016586398 -2.112127642590002 0 0 0
6997 1 1 0 90.47660818738073 18.710533410742965 -1.6266143610712818 0 0 0
9898 1 2 0 92.00853594484097 18.904864514807496 -2.1617715624075093 0 0 0
9896 1 2 0 94.6440569111972 18.293116378427783 -2.1072919424835206 0 0 0
6998 1 1 0 93.48880130397923 19.331773764892944 -1.6219559645440602 0 0 0
6996 1 1 0 95.96202376448637 17.46340032618713 -1.6355097327288664 0 0 0
9897 1 2 0 97.29431859922772 18.25887121853214 -2.128534724962385 0 0 0
9426 1 2 0 99.9853758972505 18.641709410751194 -2.153948405337856 0 0 0
7001 1 1 0 98.54955638875707 19.15197112825517 -1.6118797872022979 0 0 0
6689 1 1 0 101.51513528640965 18.523570513362124 -1.6504150538222029 0 0 0
9352 1 2 0 102.21729494910916 17.17110991578558 -2.1732862856269013 0 0 0
6703 1 1 0 9.817217756778788 20.48033605482384 -1.6477457129512492 0 0 0
9446 1 2 0 11.345279606012937 20.087119982513535 -2.135027848645824 0 0 0
9447 1 2 0 9.460860642512005 21.982780684372834 -2.152269275452548 0 0 0
6705 1 1 0 12.865337214155879 19.77473720817234 -1.5706214806779115 0 0 0
6973 1 1 0 18.614204300298073 19.81954671492723 -1.6244230157625772 0 0 0
9865 1 2 0 18.31989917051442 21.459644554576908 -2.042386982627402 0 0 0
9872 1 2 0 23.13386286615302 20.73930022224432 -2.1299027314165073 0 0 0
7006 1 1 0 28.382926175143382 20.70169150398629 -1.6316256422366413 0 0 0
9912 1 2 0 27.451217660328986 21.958345419641773 -2.1321513775329617 0 0 0
9911 1 2 0 29.9696338472909 20.75701641618905 -2.129238495658783 0 0 0
7007 1 1 0 31.54371207005188 20.532991811012586 -1.6186506611010452 0 0 0
9913 1 2 0 32.76919598558281 21.5773490155266 -2.096911228600371 0 0 0
9880 1 2 0 37.46456817689805 20.8670432387861 -2.158354285756444 0 0 0
9879 1 2 0 42.10881072649806 20.20745963349773 -2.0992919286626903 0 0 0
7010 1 1 0 43.384732508561946 21.16862465524982 -1.613572616572971 0 0 0
9917 1 2 0 44.87614714474103 20.653411261757647 -2.0925282937081064 0 0 0
7011 1 1 0 46.443755521010324 20.42920212157394 -1.6463578817239097 0 0 0
9919 1 2 0 47.41334921981096 21.673292749373775 -2.1387832438335828 0 0 0
9883 1 2 0 51.99172670091849 20.92807113363869 -2.1453363136287247 0 0 0
7015 1 1 0 58.074979713619406 19.878915585582945 -1.6100869965648477 0 0 0
9925 1 2 0 58.202896438705544 21.377870078595766 -2.191110060948037 0 0 0
7018 1 1 0 64.20534177923464 21.560105880284414 -1.6344953651434457 0 0 0
9884 1 2 0 64.3458893881074 20.006186498441956 -2.1620298873119865 0 0 0
9744 1 2 0 69.6205309683592 19.95853184934159 -2.033188144906247 0 0 0
7057 1 1 0 69.85084877935115 21.520334496497064 -1.6136908551131262 0 0 0
9986 1 2 0 71.43035715886043 21.720598240528496 -2.1076233770251482 0 0 0
9936 1 2 0 74.52413992536205 21.70745094920159 -2.1187109066336807 0 0 0
9888 1 2 0 75.614063037053 19.677071144875942 -2.08778317063207 0 0 0
7023 1 1 0 76.03707845388072 21.1953802806354 -1.6139499896035465 0 0 0
9934 1 2 0 77.58555301462339 21.630891699741756 -2.0956724637367703 0 0 0
9890 1 2 0 80.12831145630815 20.470234105842028 -2.0595252295798963 0 0 0
7022 1 1 0 79.1960187784042 21.77733829275677 -1.6373383001905994 0 0 0
9891 1 2 0 85.17944758527007 20.15949320886105 -2.1614353910991366 0 0 0
7029 1 1 0 85.95954147460144 21.489628657109247 -1.6359999226017217 0 0 0
9944 1 2 0 87.50436715262964 21.603162932849205 -2.1491049493874854 0 0 0
9899 1 2 0 89.62794920235558 20.031882048632475 -2.059082524920678 0 0 0
7030 1 1 0 89.04934039831303 21.491169043721985 -1.6258093276345067 0 0 0
9900 1 2 0 93.84908339623996 20.875299799579253 -2.0167463360041125 0 0 0
9950 1 2 0 96.27200564659277 22.030944008561843 -2.149858220319392 0 0 0
9904 1 2 0 98.48701141915122 20.73448961816195 -1.9791743800976893 0 0 0
9424 1 2 0 102.38384827323331 19.791025741932067 -2.1400904470332285 0 0 0
9481 1 2 0 4.796230667753725 23.08827272661756 -2.1091879914052 0 0 0
6728 1 1 0 6.042409698517371 24.112877646489288 -1.6291968898250844 0 0 0
9483 1 2 0 7.663824003848458 23.946939630089478 -2.0621724718055674 0 0 0
6729 1 1 0 9.234101336882066 23.512214554551772 -1.6320607648141003 0 0 0
9484 1 2 0 10.70014969860841 24.204986589219374 -2.0983431120473246 0 0 0
9962 1 2 0 16.5712884916045 24.026252947320913 -2.0222723016224515 0 0 0
7040 1 1 0 17.960144480596476 23.083087815198116 -1.6102999729852228 0 0 0
9961 1 2 0 19.359631249147156 23.927498147086638 -1.9798906887816163 0 0 0
7041 1 1 0 20.933390040227025 24.363786244741615 -1.6209904354463562 0 0 0
9959 1 2 0 22.0973479776238 23.281502488702678 -2.122244699804125 0 0 0
7039 1 1 0 23.34868394442439 22.305492630131017 -1.6317340543926613 0 0 0
9960 1 2 0 24.854078353048656 22.902227761801598 -2.0158703943681924 0 0 0
7045 1 1 0 26.44962889972555 23.160735379746903 -1.629352729554563 0 0 0
9971 1 2 0 33.4635472222174 24.26526332926973 -2.098170235378421 0 0 0
7047 1 1 0 33.882821013820816 22.742649258398163 -1.622079306206607 0 0 0
9969 1 2 0 35.49581636241279 22.60558210602552 -2.027676310017582 0 0 0
7046 1 1 0 37.096489633418 22.373062214591698 -1.6253681000218987 0 0 0
9970 1 2 0 38.32449545419082 23.40280189930466 -2.1027708209915534 0 0 0
7049 1 1 0 39.6140224859762 24.35660123700385 -1.6411983090306381 0 0 0
9972 1 2 0 41.19643454099274 24.15594733750325 -2.1048938257591305 0 0 0
9918 1 2 0 43.32827331215448 22.78617596136649 -1.9752724810146172 0 0 0
7048 1 1 0 42.78507406671937 24.3132336556831 -1.6151138258350806 0 0 0
7051 1 1 0 48.43722124544466 22.855316061134896 -1.6086161357744384 0 0 0
9977 1 2 0 47.95983399589475 24.37781510794171 -1.9839149172560397 0 0 0
9975 1 2 0 49.984682501414056 22.642226914433444 -2.092171147156224 0 0 0
7050 1 1 0 51.533115848548604 22.411164013855554 -1.6225160126410632 0 0 0
9976 1 2 0 52.47044601846269 23.67674366757259 -2.080016228771494 0 0 0
9928 1 2 0 57.31087434857663 23.963837042705528 -2.1156893657766247 0 0 0
7017 1 1 0 58.454313662446175 22.879479772225345 -1.6329076800302016 0 0 0
9927 1 2 0 60.02281337426603 23.000610083434974 -2.1103591320567903 0 0 0
7019 1 1 0 61.55957110203783 23.291103495128596 -1.6045058572279698 0 0 0
9929 1 2 0 62.868343490360225 22.41341898654738 -2.133915653712351 0 0 0
9930 1 2 0 65.67899562262423 22.16515422754234 -2.0502095980039825 0 0 0
7056 1 1 0 67.03414572371958 22.99848024222728 -1.6319146590592442 0 0 0
9985 1 2 0 66.60507292653362 24.498529472435795 -2.1620690536130316 0 0 0
9984 1 2 0 68.50820632091965 22.38474419279757 -2.1122690725665305 0 0 0
7098 1 1 0 72.97905809684222 22.10721575331236 -1.6341466649397771 0 0 0
10047 1 2 0 73.0095644323371 23.61289069739715 -2.210051139170849 0 0 0
9935 1 2 0 80.02204550178432 23.148857376545706 -2.116341794675893 0 0 0
7060 1 1 0 81.11584719657235 24.30003429823459 -1.6201352303720584 0 0 0
9990 1 2 0 82.66659511855903 23.93755639427631 -2.00652215443057 0 0 0
9945 1 2 0 85.07205542926131 22.765409313983255 -2.0948919675036812 0 0 0
7061 1 1 0 84.24483614144658 24.072207283302518 -1.608761451526449 0 0 0
9946 1 2 0 90.02019945191437 22.71371975080817 -2.1127868654517403 0 0 0
7064 1 1 0 90.64780467172447 24.13554868114944 -1.624224294518024 0 0 0
7033 1 1 0 94.7485166296872 22.177747185877124 -1.631704000553669 0 0 0
9951 1 2 0 94.30616291953467 23.656348646248276 -2.1655386494124698 0 0 0
7034 1 1 0 97.79257588518036 22.151943807547568 -1.6138858945577512 0 0 0
9952 1 2 0 98.49543011527368 23.525314060464652 -2.140178276137794 0 0 0
6731 1 1 0 102.2448675658285 23.931489483044434 -1.6168375341001133 0 0 0
9425 1 2 0 102.50554192477192 22.388000494160437 -2.020748327255773 0 0 0
9118 1 2 0 5.4695887181394935 25.604204502618593 -2.0451066912787508 0 0 0
9560 1 2 0 11.507689784972401 26.417820340113426 -2.0942543916184166 0 0 0
6783 1 1 0 12.136367907373602 24.979405305806264 -1.6146896696512363 0 0 0
9562 1 2 0 13.788076078897697 24.95220490232998 -2.071855036147128 0 0 0
7071 1 1 0 15.430408616558696 25.251899033733427 -1.636406818886984 0 0 0
10006 1 2 0 16.0237774274385 26.805369623030284 -2.016347049800412 0 0 0
9963 1 2 0 21.385575681739226 25.917399377317974 -2.0639382999325653 0 0 0
9968 1 2 0 27.15009168973065 24.573535371702988 -2.141085744886237 0 0 0
7082 1 1 0 27.694766713244327 26.05676938967415 -1.6342931011594084 0 0 0
10023 1 2 0 29.160121173704855 26.687502262878716 -2.1239813309290034 0 0 0
10025 1 2 0 31.93116508026438 26.49277856413455 -2.1364632081793347 0 0 0
7083 1 1 0 33.36432401725029 25.841927604849644 -1.643759730310913 0 0 0
10026 1 2 0 34.69427286247643 26.69608249830923 -2.1275388724806388 0 0 0
9974 1 2 0 39.43746733180912 25.89405102574091 -2.16649341981848 0 0 0
9973 1 2 0 43.71916468932084 25.670371767705447 -2.0531594101711317 0 0 0
7090 1 1 0 44.843666183829676 26.887574546074394 -1.6274968966210692 0 0 0
10034 1 2 0 46.39849010993592 26.520817624517385 -2.1275281025607415 0 0 0
7089 1 1 0 47.88903924732891 25.97772714313181 -1.610787999078015 0 0 0
10035 1 2 0 49.29378569582287 26.748107314803722 -2.070147793863006 0 0 0
9980 1 2 0 52.0636484021695 26.35286232799341 -2.0560840902281208 0 0 0
7053 1 1 0 53.10822993914688 25.12446946244056 -1.6306962314267017 0 0 0
9978 1 2 0 54.692555419247675 25.15716267243619 -2.1455351462562757 0 0 0
7052 1 1 0 56.26727586782826 25.146976829468265 -1.6130439806946746 0 0 0