LAMMPS data file via write_data, version 23 Jun 2022, timestep = 7028

15468 atoms
2 atom types

5.406114294634859 198.86658955292538 xlo xhi
4.313545120025754 171.89142139602367 ylo yhi
-100 100 zlo zhi

Masses

1 28.085
2 15.999

Atoms # full

9297 1 2 0 9.351721713042293 4.531559873930603 -2.064468300397829 0 0 0
9293 1 2 0 9.954540286194012 6.710693202824703 -2.116476792063101 0 0 0
6605 1 1 0 10.710401366839974 5.349703257930232 -1.613665352730116 0 0 0
9298 1 2 0 12.240872185126591 4.990564115547118 -2.134185581977699 0 0 0
6823 1 1 0 13.811189965344683 4.823093607560273 -1.625095236068101 0 0 0
9629 1 2 0 14.994845602592564 5.83320505047814 -2.161781822744813 0 0 0
6825 1 1 0 16.295047970024488 6.67630040147691 -1.6184401133764252 0 0 0
9633 1 2 0 17.835017967844667 6.333674668855125 -2.0656900632907917 0 0 0
6832 1 1 0 19.412909791401727 6.136779962684549 -1.6275126143757126 0 0 0
9645 1 2 0 19.68454297724708 4.568746385614859 -2.1291617577412856 0 0 0
6843 1 1 0 25.216765846157728 4.86789168042176 -1.6142246555571849 0 0 0
9652 1 2 0 25.357176338506306 6.45194026453034 -2.0841982927908056 0 0 0
6846 1 1 0 30.15506364180603 4.66250667383105 -1.625690306863815 0 0 0
9655 1 2 0 29.752534334091077 6.197486361108621 -2.06621898901323 0 0 0
6852 1 1 0 35.102884864620464 4.976060263462577 -1.5996738801557053 0 0 0
9672 1 2 0 34.49648890760047 6.4620080986368 -2.087070753837059 0 0 0
9690 1 2 0 41.61458453607286 4.801081341902603 -2.0703181259081105 0 0 0
6859 1 1 0 42.152225530149934 6.29661333968365 -1.6468194110340038 0 0 0
9689 1 2 0 43.70308918075721 6.658695921066387 -2.113658902106722 0 0 0
6863 1 1 0 45.28016722819997 6.586679044192956 -1.6034307269455765 0 0 0
9697 1 2 0 45.691254755898896 5.062478380849097 -1.9568096023514443 0 0 0
9708 1 2 0 50.57743551824558 5.400418063952512 -1.9843617796400603 0 0 0
9721 1 2 0 54.934463011657215 5.601952244485472 -2.109942188303953 0 0 0
9735 1 2 0 60.02756117254608 4.397408533944028 -2.1031126043268316 0 0 0
9728 1 2 0 60.9093441812433 6.767250852723387 -2.1884079892098907 0 0 0
6886 1 1 0 61.28940276848271 5.292960421340925 -1.626181597103971 0 0 0
9736 1 2 0 62.74552235396203 4.7274887791742195 -2.1067357727576796 0 0 0
6894 1 1 0 67.04037589819738 4.628797393773036 -1.63662977847351 0 0 0
9746 1 2 0 67.31552745979612 6.1259682612150685 -2.16316615330356 0 0 0
9758 1 2 0 73.0389584042339 5.2083444289774645 -2.125058295260949 0 0 0
6900 1 1 0 73.27056392397222 6.751049462675142 -1.6298357684291291 0 0 0
6909 1 1 0 77.72797483274431 4.88622780997257 -1.629445529926388 0 0 0
9771 1 2 0 78.15837794509491 6.577998589638818 -1.9678702011525262 0 0 0
6913 1 1 0 82.52828012332253 5.720969309539689 -1.628222889103715 0 0 0
9781 1 2 0 81.39427516687451 4.620990106301875 -2.090643035598034 0 0 0
9782 1 2 0 83.81183050426748 4.829240209241659 -2.104669173225781 0 0 0
6920 1 1 0 88.20384382103362 6.4339641129979235 -1.5951038766917636 0 0 0
9792 1 2 0 88.22090680296307 4.94318310421486 -2.162030652076979 0 0 0
9799 1 2 0 93.24191426144644 5.471072677774029 -2.1296707648650894 0 0 0
6936 1 1 0 98.81087550118993 6.202247029371946 -1.6394073660865782 0 0 0
9817 1 2 0 97.8012823545574 5.024290055894102 -2.155732843843621 0 0 0
9093 1 2 0 100.39357038775958 6.1783925924937 -2.089626418754053 0 0 0
6483 1 1 0 101.84767564985606 6.773681806194732 -1.5999895247751936 0 0 0
6579 1 1 0 5.71389734282608 7.673098864876717 -1.624415035540887 0 0 0
9256 1 2 0 7.28522205665102 7.614196007626364 -2.1461024399179967 0 0 0
6602 1 1 0 8.847949439641285 7.814683004131192 -1.6494161491835742 0 0 0
9292 1 2 0 9.59546027905201 9.164406124196717 -2.1674928398562665 0 0 0
9631 1 2 0 15.995377811367106 8.18313808468043 -2.1097429272448496 0 0 0
9642 1 2 0 20.41622875962747 7.417373388052998 -2.063539286702893 0 0 0
6831 1 1 0 20.975489590703663 8.94960072740707 -1.6324670697784651 0 0 0
6836 1 1 0 25.958649690419488 7.938149125844411 -1.645907209312212 0 0 0
9651 1 2 0 27.5608883006115 7.946503399029761 -2.0922140958170226 0 0 0
6838 1 1 0 29.13282998889874 7.66742072050284 -1.6318910566790992 0 0 0
9654 1 2 0 30.211018774949196 8.811746847936936 -2.142884426015582 0 0 0
9657 1 2 0 32.912488074088955 9.069972665246608 -2.0011636358257077 0 0 0
6848 1 1 0 34.2576685995255 8.071010384438454 -1.6356349756150534 0 0 0
9671 1 2 0 35.73585666598156 8.645499470153236 -2.1292351559282507 0 0 0
9674 1 2 0 38.63042593206875 9.055571734919308 -2.111235097664564 0 0 0
6854 1 1 0 40.19637692516791 8.72211992852147 -1.6316062916103964 0 0 0
9682 1 2 0 41.00858522631433 7.376844445111553 -2.135758130318887 0 0 0
9695 1 2 0 46.61195720318219 7.4272057779662735 -2.1228136793898185 0 0 0
6862 1 1 0 48.04018700979731 8.11353068461858 -1.6484156564652754 0 0 0
6870 1 1 0 50.92321650037773 6.921800928648042 -1.5883621332909599 0 0 0
9696 1 2 0 49.51865531263087 7.579566661802753 -2.133278577456917 0 0 0
9709 1 2 0 52.464422783578634 6.977733823779458 -2.1414463550537444 0 0 0
6877 1 1 0 54.021572465555174 6.8819422589492465 -1.6366932195304553 0 0 0
9718 1 2 0 54.62533405006795 8.301108315232065 -2.1408341594075666 0 0 0
6881 1 1 0 60.62059157985854 8.264520001994766 -1.6467344977768745 0 0 0
9726 1 2 0 59.22903531999212 8.958592115132264 -2.0963436509709954 0 0 0
9727 1 2 0 61.865883269194576 9.146815571929636 -2.171318898956041 0 0 0
9745 1 2 0 67.10993656490704 8.828547958819899 -2.168567221423297 0 0 0
6892 1 1 0 67.85879286223965 7.525016524854308 -1.602210231395047 0 0 0
9747 1 2 0 69.42754167994549 7.584229243312426 -1.9065492004223215 0 0 0
6897 1 1 0 70.75858265810336 8.415008110081729 -1.5996082024781109 0 0 0
9754 1 2 0 72.02912835129457 7.626296080650339 -2.1773592349309356 0 0 0
9759 1 2 0 74.58214241897107 7.6192051059199235 -2.0586047706632424 0 0 0
6903 1 1 0 75.53867988833512 8.868486607945261 -1.6316727536197861 0 0 0
9764 1 2 0 77.05867705397607 8.620085293955349 -2.125836259999592 0 0 0
6908 1 1 0 78.58457300916231 8.315012548615908 -1.6068069989086486 0 0 0
9777 1 2 0 82.49013360263899 7.314892992936947 -2.079555963377429 0 0 0
6911 1 1 0 83.1323293728224 8.791093685027674 -1.6412774638445489 0 0 0
9778 1 2 0 84.65707533402627 8.666548443893046 -2.1811272149659526 0 0 0
6916 1 1 0 86.14389590379908 8.646184190099055 -1.5867701466870863 0 0 0
9786 1 2 0 86.82203361826198 7.212063499098349 -1.8355020322230677 0 0 0
9793 1 2 0 89.44263322536047 7.284705775004815 -2.1264491402710792 0 0 0
6924 1 1 0 90.5229470365854 8.354598601195132 -1.6161671961602335 0 0 0
9798 1 2 0 91.90421722117752 7.794849710199647 -2.2050222114451232 0 0 0
6925 1 1 0 93.22205164663055 7.046864187100083 -1.6341434416117602 0 0 0
9800 1 2 0 94.14945825688179 8.337849612049501 -2.070541654008652 0 0 0
9816 1 2 0 98.1182869132318 7.606984099214142 -2.0862012782457646 0 0 0
6935 1 1 0 97.67557267177934 9.092732859538648 -1.6091104550304303 0 0 0
9091 1 2 0 101.79195536691343 8.361991623526366 -1.938312776963889 0 0 0
9294 1 2 0 9.017646679360777 11.560736626976597 -1.9366617371436314 0 0 0
6604 1 1 0 10.23661697727167 10.546477845404741 -1.6072297662559245 0 0 0
9296 1 2 0 11.71467152054826 10.96883776972584 -2.160529297178358 0 0 0
9367 1 2 0 14.424519248620278 10.311888231434011 -2.156335908672059 0 0 0
6650 1 1 0 13.225214609599602 11.258413564494111 -1.6147911050060493 0 0 0
6824 1 1 0 15.82759102969282 9.703964173131869 -1.6188427296108503 0 0 0
9632 1 2 0 17.13710555280904 10.54993888193909 -2.055649805521568 0 0 0
6833 1 1 0 18.624444742618614 11.031923506701663 -1.6188440565621818 0 0 0
9643 1 2 0 19.790001749120187 9.990467485826096 -2.08866724585401 0 0 0
9644 1 2 0 22.42218263399453 9.678900762227642 -2.110593690445324 0 0 0
6837 1 1 0 23.884039235471878 10.389251403925739 -1.638150456298221 0 0 0
9650 1 2 0 25.04793127086264 9.268442039231067 -2.118398962626143 0 0 0
6839 1 1 0 31.413788805325545 9.833910237471558 -1.6287405471198937 0 0 0
9656 1 2 0 30.851542213615062 11.415751636305654 -2.0204769019458895 0 0 0
9673 1 2 0 36.454439064774775 10.932351801866698 -1.9838979938427528 0 0 0
6849 1 1 0 37.08505401578504 9.45308403225151 -1.6071033288615082 0 0 0
9681 1 2 0 41.33223639906837 9.831638085077023 -2.0478460404928236 0 0 0
6855 1 1 0 41.98364326233923 11.273141007238973 -1.6226619721775322 0 0 0
9691 1 2 0 46.34875659586558 11.432892791524983 -2.0603238570477957 0 0 0
6860 1 1 0 47.90032982918958 11.160412276822974 -1.6286862632720533 0 0 0
9692 1 2 0 48.09015764413688 9.647448531215886 -2.1717275475679805 0 0 0
6876 1 1 0 55.133546793887014 9.75421683208538 -1.640602130347644 0 0 0
9719 1 2 0 54.22062897968891 10.99907453595897 -2.151481191050066 0 0 0
6882 1 1 0 58.15550405935228 10.083837847016497 -1.6385029357858063 0 0 0
9720 1 2 0 56.65459257973568 9.851788778082366 -2.1811024394458327 0 0 0
9729 1 2 0 58.5861269627323 11.57278949769741 -2.1063308290748926 0 0 0
6883 1 1 0 63.13578926896976 9.938551832481453 -1.6008162641549746 0 0 0
9730 1 2 0 63.16906469152891 11.510458092230573 -1.9391546332766336 0 0 0
9731 1 2 0 64.60922482902504 9.60086853085643 -2.126471315437859 0 0 0
6893 1 1 0 66.09240404049162 9.947428966172666 -1.633983308199076 0 0 0
9748 1 2 0 66.45673770831077 11.477889571258686 -1.9681064328695024 0 0 0
9753 1 2 0 70.57291214188025 9.902281822773029 -2.167946317047515 0 0 0
6898 1 1 0 70.3036045132189 11.390042103950904 -1.6426522389077276 0 0 0
9763 1 2 0 75.18677019991632 10.377116634077558 -2.1487517868245436 0 0 0
9772 1 2 0 79.26550658269436 9.951958065120776 -1.9809245716975792 0 0 0
6914 1 1 0 79.91109487748642 11.565724692689917 -1.6303144234920284 0 0 0
9776 1 2 0 83.10356691945346 10.403307410670614 -2.0756972597971655 0 0 0
9785 1 2 0 87.1899225104988 9.755980655240787 -2.111367292862158 0 0 0
6917 1 1 0 88.49803334040803 10.57089440485214 -1.6247087009330015 0 0 0
9788 1 2 0 89.86103072662677 9.77946126624261 -1.958705808835087 0 0 0
6932 1 1 0 94.71165002261942 9.828858803570611 -1.6397512151705014 0 0 0
9811 1 2 0 94.10273690466845 11.284482258126877 -2.13868208608631 0 0 0
9812 1 2 0 96.23824536453421 9.606847845239155 -2.1585411998952138 0 0 0
9262 1 2 0 98.79153146281847 10.158893897141082 -2.067151534016373 0 0 0
6582 1 1 0 99.7609871132577 11.366997134122157 -1.616135062334667 0 0 0
9092 1 2 0 101.26151620197946 10.91423874554598 -2.0629809342996133 0 0 0
9288 1 2 0 6.745909846252724 12.956504681683885 -2.151662558505638 0 0 0
6603 1 1 0 8.28302987396258 12.960634231406425 -1.5980381550132314 0 0 0
9295 1 2 0 9.41429972377511 13.994265127494051 -2.1509460467360997 0 0 0
9366 1 2 0 13.840649478166815 12.725011952397542 -1.917715549651553 0 0 0
9646 1 2 0 18.817798289383077 12.555563695553408 -2.16857707491312 0 0 0
6942 1 1 0 18.96186720717335 14.086182182043334 -1.6192422557522417 0 0 0
9653 1 2 0 24.198908654865726 12.0395879569912 -1.9982846757421122 0 0 0
6841 1 1 0 24.494003452858724 13.699009712975593 -1.631468342958584 0 0 0
9658 1 2 0 28.981543887152604 14.090970810805644 -1.9852947986177647 0 0 0
6840 1 1 0 30.380541901692162 13.038473968185672 -1.6068829015052561 0 0 0
9659 1 2 0 31.90060331829813 13.624833264260895 -1.9934945143369815 0 0 0
6851 1 1 0 33.436122805293785 14.151568254833048 -1.6228964095397007 0 0 0
9675 1 2 0 34.78469910251053 13.276522145217209 -2.121896113277287 0 0 0
6850 1 1 0 36.18741734173174 12.515963530498551 -1.6042176820251601 0 0 0
9676 1 2 0 37.72269575929811 12.852249612877367 -2.120680065355258 0 0 0
6856 1 1 0 39.2847701956606 12.895095312557379 -1.6196942810024562 0 0 0
9683 1 2 0 40.59815030239698 12.031006378232517 -2.0898109030745124 0 0 0
9684 1 2 0 43.470105202663454 11.759566645457753 -2.1779226488108976 0 0 0
6861 1 1 0 44.97196388506925 12.201252741041424 -1.6305941972397828 0 0 0
9694 1 2 0 45.60881788823987 13.630094232943154 -2.1017246353153833 0 0 0
6866 1 1 0 50.43029171657878 12.967596899127425 -1.6325701027291977 0 0 0
9693 1 2 0 49.09378604275454 12.161098506298403 -2.134702448322116 0 0 0
6878 1 1 0 53.459115987775355 12.343929951328173 -1.6440760156854604 0 0 0
9702 1 2 0 51.88352188156397 12.358079643298495 -2.070533758040817 0 0 0
9722 1 2 0 54.19136905468703 13.714758460060049 -2.1555395781413127 0 0 0
6884 1 1 0 59.4395390863244 12.843542567485967 -1.6076770420965325 0 0 0
9732 1 2 0 60.96655521074317 12.656074210491456 -2.0868248142711354 0 0 0
6885 1 1 0 62.47218778515438 12.904421684044259 -1.5939385596498283 0 0 0
6899 1 1 0 67.54509578880149 12.601759266583585 -1.609260397247503 0 0 0
9757 1 2 0 67.31711506915997 14.082735820522927 -2.1770476313645113 0 0 0
9755 1 2 0 68.91927066118126 11.996512082728307 -2.1584045232725835 0 0 0
9756 1 2 0 71.42400552012822 12.376436150211585 -2.200925875468864 0 0 0
6905 1 1 0 72.50565557010175 13.394321438520384 -1.6158262874251685 0 0 0
9765 1 2 0 73.88862513772631 12.748426662383903 -2.0987183835006515 0 0 0
6904 1 1 0 75.18539744505823 11.911657414318485 -1.6136819469359425 0 0 0
9766 1 2 0 76.11875802468977 13.152440022802798 -2.111915962008618 0 0 0
9783 1 2 0 79.51601198990784 13.204599067648637 -2.008452839082704 0 0 0
9779 1 2 0 81.46249529210242 11.905177610485145 -2.1484671346418445 0 0 0
6912 1 1 0 83.04104894919949 12.017803341277718 -1.622824579231596 0 0 0
9780 1 2 0 84.09231654665498 13.264613566091379 -2.0994369178821946 0 0 0
9789 1 2 0 86.71394576130122 14.092149345437907 -2.085119772413553 0 0 0
6918 1 1 0 88.16904374460735 13.544278380517925 -1.6255638952091165 0 0 0
9787 1 2 0 88.37346514613245 12.055827798047858 -2.205376084347016 0 0 0
9790 1 2 0 89.58484238721988 14.170916300683322 -2.1165720687561174 0 0 0
9813 1 2 0 92.31503804359814 13.364719890533 -2.051171294422907 0 0 0
6933 1 1 0 93.80827545009724 12.835078397524592 -1.6302027504162602 0 0 0
9814 1 2 0 94.8342730013293 14.040342501819783 -2.094750551438547 0 0 0
9261 1 2 0 99.0705190030026 12.740734505578697 -2.1342669348294354 0 0 0
6647 1 1 0 10.70071224685137 14.84849036138425 -1.6473125032167948 0 0 0
9362 1 2 0 12.211729813699415 14.543012217220545 -2.15322343187151 0 0 0
9361 1 2 0 10.56534729698195 16.34651934175361 -2.202369058254909 0 0 0
6651 1 1 0 13.718506724348282 14.30252609851446 -1.5978648870491716 0 0 0
9368 1 2 0 14.997736828947493 15.143728990519955 -2.156969974609073 0 0 0
6981 1 1 0 16.38145279017831 15.829794622664018 -1.617414292523249 0 0 0
9826 1 2 0 17.740676302561543 15.059521528036226 -2.123395837745725 0 0 0
9825 1 2 0 20.473602217678796 14.58254102174692 -1.9859771277972582 0 0 0
6943 1 1 0 21.773149393089927 15.509752456881639 -1.609435436975758 0 0 0
9661 1 2 0 23.19540980486422 14.713836427275677 -2.095858936530909 0 0 0
9660 1 2 0 26.053283097734106 14.343557719985562 -2.0274381661004166 0 0 0
6842 1 1 0 27.569386795181813 15.117132510841207 -1.638246425045918 0 0 0
9677 1 2 0 33.30858369834838 15.711082563012722 -2.1642461678014837 0 0 0
9685 1 2 0 39.863946114018965 14.277270687908084 -2.190589172483405 0 0 0
6949 1 1 0 40.47560891092242 15.63336562475917 -1.6335571959496693 0 0 0
9836 1 2 0 41.976545724185726 15.883002832943298 -2.087707696604582 0 0 0
6950 1 1 0 43.30655463422143 16.620179822078608 -1.6274427403123082 0 0 0
6867 1 1 0 45.8758254338323 15.149564518719629 -1.6165192685110132 0 0 0
9704 1 2 0 44.529766583204974 15.788894716382476 -2.189447515300886 0 0 0
9703 1 2 0 46.84634605062536 16.335977398067904 -2.146661018074848 0 0 0
9701 1 2 0 50.41304257883481 14.526813434894878 -2.111996815653395 0 0 0
6868 1 1 0 50.36180964354111 16.078185342450183 -1.6357442123417816 0 0 0
9842 1 2 0 53.59867985443509 16.35063727142084 -1.9944173267642913 0 0 0
6953 1 1 0 54.63474273110614 15.1755161136987 -1.5968380334225305 0 0 0
9843 1 2 0 55.8662557047513 16.0707032840236 -2.1624972690211153 0 0 0
9845 1 2 0 58.30120823483066 16.556712281973308 -2.1893836504564983 0 0 0
6955 1 1 0 59.62601343178075 15.868893463767595 -1.6428907106930941 0 0 0
9733 1 2 0 59.417457495694386 14.358849157109207 -2.1863165717580286 0 0 0
9734 1 2 0 63.223689293415035 14.202714807080266 -2.1800398435338333 0 0 0
6961 1 1 0 63.90962624515102 15.564964753592562 -1.652311074522871 0 0 0
9854 1 2 0 65.40852553916388 15.721490123044045 -2.1691657419048322 0 0 0
6962 1 1 0 66.89841584208607 15.534641089127778 -1.63316594042562 0 0 0
9767 1 2 0 72.08863640915511 14.85265957830336 -2.1306060863751606 0 0 0
7000 1 1 0 71.78911056282946 16.35049024830846 -1.6327641171903267 0 0 0
9861 1 2 0 75.46768190106293 15.8531468075445 -2.142081618001511 0 0 0
6965 1 1 0 76.45751773503392 14.670065957528614 -1.6402860497020733 0 0 0
9860 1 2 0 77.95824748596169 14.99555633175676 -2.0850176108402443 0 0 0
6966 1 1 0 79.51028595534264 14.880723898754166 -1.5860981964238556 0 0 0
9862 1 2 0 79.36062936009107 16.530145858479912 -2.071714287294795 0 0 0
6919 1 1 0 85.18541731247183 14.484248056944962 -1.620450046821668 0 0 0
9791 1 2 0 85.45218852116821 16.08590312734722 -2.121859287688889 0 0 0
6934 1 1 0 91.11683411423118 14.385743829026836 -1.6071949482520174 0 0 0
9815 1 2 0 91.40436894134885 15.915435866381623 -2.0503309481301244 0 0 0
6973 1 1 0 95.76189278729214 15.32342169917313 -1.6302691205838624 0 0 0
9263 1 2 0 97.26431662079783 14.890174635952373 -2.1330476499449436 0 0 0
6583 1 1 0 98.67444818618256 14.236091618374857 -1.6368485709093972 0 0 0
9259 1 2 0 99.94277751508321 15.072943503081708 -2.179659460432698 0 0 0
6581 1 1 0 101.1205557187751 16.038094136024096 -1.6565106292034046 0 0 0
6648 1 1 0 7.292769000098489 18.520939687868868 -1.5830629064152657 0 0 0
9357 1 2 0 5.810274857417028 18.27194806890215 -2.1828524710972244 0 0 0
9363 1 2 0 8.717147015433996 17.916998436714163 -2.1120791868153677 0 0 0
6649 1 1 0 10.271896513825421 17.816293869185042 -1.6401934008389318 0 0 0
9365 1 2 0 11.418491194553784 18.885203542194706 -2.092390691169533 0 0 0
9884 1 2 0 16.388677074741377 17.431714711427087 -1.9214841031323038 0 0 0
7012 1 1 0 17.131721395677854 18.85156590074028 -1.6041181137479557 0 0 0
9930 1 2 0 18.6979380225025 18.58916888059685 -2.090388176742114 0 0 0
9827 1 2 0 21.155966078205022 17.00620313029156 -2.0766986717567715 0 0 0
7011 1 1 0 20.28174945699919 18.36561910215714 -1.6363545581942924 0 0 0
9662 1 2 0 27.636195707173833 16.85365808693655 -2.0327261318159677 0 0 0
6985 1 1 0 27.511038000804106 18.580513207058374 -1.6273462104106058 0 0 0
6984 1 1 0 33.30503562058703 17.272069586519798 -1.6423965918589467 0 0 0
9888 1 2 0 32.69598943193104 18.749547602206835 -2.1252261084783663 0 0 0
9889 1 2 0 34.69529848212391 17.883651578614174 -2.1915826126278266 0 0 0
6989 1 1 0 35.91272786246632 18.746252850982096 -1.6372116839466666 0 0 0
9895 1 2 0 37.2498314292395 18.005518249510363 -2.0543108071352085 0 0 0
6988 1 1 0 38.77089954408971 18.050302360809887 -1.6296550665173886 0 0 0
9837 1 2 0 39.59844501019729 16.828989813279836 -2.213128664578052 0 0 0
9838 1 2 0 43.46921273186448 18.112589930545806 -2.1635864485292937 0 0 0
6869 1 1 0 47.74729610614628 17.592762878180444 -1.638350470254805 0 0 0
9705 1 2 0 49.09600415755091 16.901571725829744 -2.190547881577219 0 0 0
6954 1 1 0 52.894556166626806 17.756187028712937 -1.588895765299418 0 0 0
9706 1 2 0 51.51648661622783 17.098112518135842 -2.1319685641167565 0 0 0
6956 1 1 0 56.94034510410625 17.15724665376654 -1.6274443943679138 0 0 0
9847 1 2 0 57.06323701712208 18.69326601118219 -2.1101606697581126 0 0 0
9846 1 2 0 60.74605122541837 16.913868536663287 -2.1450843695824093 0 0 0
6999 1 1 0 61.96284899982789 17.844222796548213 -1.6346480628279254 0 0 0
9855 1 2 0 63.154978619835376 16.89243469836466 -2.1255478370143597 0 0 0
9856 1 2 0 67.8444534009971 16.726864681584406 -2.108274410210689 0 0 0
7026 1 1 0 69.07460952528854 17.63340866418465 -1.639100971909013 0 0 0
9914 1 2 0 70.42735587495176 16.97158623853137 -2.1951670800509673 0 0 0
9913 1 2 0 73.1253091460121 17.092547157029724 -2.1036894827843486 0 0 0
7001 1 1 0 74.65665916115456 17.1677592309986 -1.6438816769421807 0 0 0
9915 1 2 0 75.23758232348698 18.581143529329744 -2.1280832064653605 0 0 0
9960 1 2 0 77.5988398128888 18.970558094610276 -2.077576740798273 0 0 0
7033 1 1 0 78.93913378522002 18.093611507500754 -1.6239928720523094 0 0 0
9920 1 2 0 84.70923635406551 18.62764888025556 -2.106501483601743 0 0 0
7004 1 1 0 85.93311629084829 17.633321044556435 -1.6432273869506437 0 0 0
9919 1 2 0 87.3639178554987 18.43343976130705 -2.058928729773036 0 0 0
6974 1 1 0 91.36350381846972 17.47195812323697 -1.6078511589592637 0 0 0
9874 1 2 0 90.05722240560837 18.285313997164913 -2.165305588316904 0 0 0
9873 1 2 0 92.81526357600802 18.066124631534368 -2.0306998842323236 0 0 0
6975 1 1 0 94.3923994671017 18.18801356608216 -1.626505211771301 0 0 0
9872 1 2 0 95.21825488882435 16.82284005908089 -2.0994996318647843 0 0 0
9260 1 2 0 100.58223677953995 17.483731222941707 -2.179794405464843 0 0 0
6653 1 1 0 100.15500070547475 18.942154686944843 -1.5998051623818912 0 0 0
9364 1 2 0 8.161688224784013 19.83596014613212 -2.019680211547719 0 0 0
6690 1 1 0 9.142544685299772 21.077816464560417 -1.5702040918965368 0 0 0
6692 1 1 0 12.117991280995478 20.298883363974987 -1.6167592772214716 0 0 0
9428 1 2 0 10.721066363779459 21.091991661038243 -1.9813767578148587 0 0 0
9430 1 2 0 13.578625060028495 20.846448578975473 -2.16119350830188 0 0 0
7049 1 1 0 15.101871389237145 21.29036438105401 -1.6509869741599381 0 0 0
9932 1 2 0 16.229618628723784 20.155193794162233 -2.1108295102878585 0 0 0
9931 1 2 0 21.033149915503234 19.728032317486445 -2.1640419074311406 0 0 0
7014 1 1 0 21.875375094729094 21.037945922654185 -1.6457110297012167 0 0 0
9933 1 2 0 23.438057244888604 20.723390758220255 -2.109521249356701 0 0 0
9891 1 2 0 26.0426586013921 19.318290281161953 -1.9872721965845124 0 0 0
7013 1 1 0 25.019736180627692 20.586429860500793 -1.613700988849008 0 0 0
9890 1 2 0 28.501421668850693 19.94551908654778 -2.055237921986781 0 0 0
6986 1 1 0 29.542650641641377 21.269967746613744 -1.6344340198013705 0 0 0
9892 1 2 0 30.938797339595226 20.583174306890385 -2.10890360867398 0 0 0
6987 1 1 0 32.46313015557951 20.317582264423642 -1.6293559914806743 0 0 0
9897 1 2 0 36.090730960458444 20.25351889870557 -2.173792079886827 0 0 0
9896 1 2 0 39.38623157489808 19.451156911782988 -2.08239415445354 0 0 0
7017 1 1 0 40.46558386694555 20.528186630859764 -1.6173903097296012 0 0 0
9902 1 2 0 41.88397438809818 20.117609526591107 -2.205006722169808 0 0 0
6992 1 1 0 43.288138056972116 19.604996554519616 -1.6485765151227147 0 0 0
9901 1 2 0 44.34925703431498 20.672287025941976 -2.1560785251178793 0 0 0
9707 1 2 0 47.550641225113 19.123267340721547 -2.155821061488764 0 0 0
6993 1 1 0 47.7339825843837 20.652856581554243 -1.6233544668295263 0 0 0
9904 1 2 0 49.01516010728737 21.525691695925094 -2.0862463654441936 0 0 0
9844 1 2 0 53.56822873271179 19.111257288015047 -2.1713263538905956 0 0 0
7018 1 1 0 54.257032483716124 20.490186745440926 -1.6441218729772253 0 0 0
9940 1 2 0 55.810897345760104 20.698230184392543 -2.055408282620263 0 0 0
7023 1 1 0 57.30160359587942 20.223530248507224 -1.6170084837278884 0 0 0
9947 1 2 0 58.63701085950359 21.01974559938414 -2.120163628309659 0 0 0
9912 1 2 0 62.111636257656556 19.35879448695947 -2.1614691765467016 0 0 0
7027 1 1 0 62.57281345797459 20.824196371492725 -1.6337742622573135 0 0 0
9952 1 2 0 64.12986126009055 21.045947786765915 -2.154281707631321 0 0 0
7029 1 1 0 65.65851478079594 21.355753881754428 -1.5936579364328471 0 0 0
9954 1 2 0 67.1875011787737 20.97185414353193 -2.1204354702926347 0 0 0
9951 1 2 0 68.9147536862145 19.131327026967266 -2.187806585875987 0 0 0
7028 1 1 0 68.74085393479453 20.640549283717448 -1.637928154219365 0 0 0
9955 1 2 0 70.16219184866446 21.35931663625013 -2.106587054119622 0 0 0
9962 1 2 0 75.58512503314535 21.194983881091964 -2.1330930874367184 0 0 0
7034 1 1 0 76.21701503906866 19.760897733829992 -1.625790123502017 0 0 0
9961 1 2 0 79.92923913582067 19.27970036070288 -2.170799317955378 0 0 0
9963 1 2 0 82.2903135464559 20.1646311149394 -2.1349820720687127 0 0 0
7036 1 1 0 80.78607231957403 20.560298238068402 -1.6353405515315242 0 0 0
7035 1 1 0 83.81083189752508 19.89708889433806 -1.606593984837101 0 0 0
9964 1 2 0 84.54735377004882 21.285179948884974 -2.014879786476959 0 0 0
7005 1 1 0 88.80254086839565 19.212224898471792 -1.6409867974241565 0 0 0
9921 1 2 0 89.30435247368584 20.760650157784006 -2.0775903608127257 0 0 0
9875 1 2 0 94.798536898173 19.715098620893666 -2.1413133227243337 0 0 0
7040 1 1 0 95.15072509725239 21.259611056328897 -1.6288833158592326 0 0 0
9970 1 2 0 96.70717315887649 21.537074214309833 -2.103914708736561 0 0 0
9371 1 2 0 98.931566749865 19.913171626956387 -2.0679055474368515 0 0 0
7041 1 1 0 98.27270285685032 21.35294101935572 -1.6428372836061016 0 0 0
9369 1 2 0 101.48022096643977 19.772621777668284 -1.9889953641426956 0 0 0
6691 1 1 0 6.503844381498663 22.603480387394594 -1.6491647143821189 0 0 0
9429 1 2 0 7.460045185449777 23.764263212370928 -2.225735813145077 0 0 0
9427 1 2 0 7.813424208055569 21.796232322345 -2.2044117382830906 0 0 0
9983 1 2 0 15.547070835846363 22.83487276130105 -2.094121333798148 0 0 0
9935 1 2 0 21.149361060939654 22.46108765433497 -2.1123488794113 0 0 0
7081 1 1 0 20.61817687848145 23.951352307595016 -1.6025436499311805 0 0 0
9934 1 2 0 25.611973892557053 22.06790024495026 -2.0139151859261126 0 0 0
7051 1 1 0 25.559779476718294 23.651560586803686 -1.6040674492780074 0 0 0
9893 1 2 0 29.955993085289887 22.91573665622723 -2.0496293731337873 0 0 0
9894 1 2 0 33.11785670769917 21.766559087455416 -2.13127379228074 0 0 0
7057 1 1 0 33.764556693533684 23.236278248448702 -1.6354778930694431 0 0 0
9993 1 2 0 35.16933197524169 22.651391407418302 -2.1557585971018325 0 0 0
7056 1 1 0 36.37173838154819 21.74677245822156 -1.6471442801091565 0 0 0
9994 1 2 0 37.661664602780576 22.522538529107557 -2.1979202663842488 0 0 0
7058 1 1 0 39.021649377474695 23.12794664842685 -1.6114828336377358 0 0 0
9938 1 2 0 40.076932712963256 22.008917453092636 -2.015487175006962 0 0 0
9905 1 2 0 44.087129298793734 23.249646230008853 -2.155929791705847 0 0 0
6994 1 1 0 45.0076263776168 22.027723107560536 -1.6156593475511487 0 0 0
9903 1 2 0 46.54537537509307 21.702610882807047 -1.975110660445487 0 0 0
9941 1 2 0 51.26739800177758 23.045078812654975 -2.131325787154898 0 0 0
7019 1 1 0 49.74339433723683 22.894899791300627 -1.6381077731770304 0 0 0
9939 1 2 0 53.50632538063994 21.80550543158544 -2.188175072450246 0 0 0
7020 1 1 0 52.7923462127863 23.13114962458632 -1.6171993577133297 0 0 0
7068 1 1 0 59.72229710208925 22.15650321273103 -1.63769057677697 0 0 0
10010 1 2 0 59.172567969504954 23.629280384748363 -2.1459154008613024 0 0 0
9953 1 2 0 61.30377473875372 21.820691196589106 -1.9783582399580983 0 0 0
9956 1 2 0 65.74502836273976 22.933015993828654 -1.9246059339483361 0 0 0
7071 1 1 0 71.47396412970234 22.257364006601254 -1.606833478551673 0 0 0
10013 1 2 0 73.05106153647158 22.309048989534876 -2.1466802683249564 0 0 0
10014 1 2 0 70.77401271768885 23.673054769753993 -1.9861630217496782 0 0 0
7072 1 1 0 74.63513639760659 22.44979486660523 -1.6314121290590748 0 0 0
10015 1 2 0 75.4817948802416 23.838091831893394 -1.94150697070316 0 0 0
9965 1 2 0 80.18565092721511 22.020610054732295 -2.0825276850959566 0 0 0
10065 1 2 0 78.24023063267883 23.990525318010672 -2.1161033751939846 0 0 0
7106 1 1 0 79.74251029052854 23.537756471481973 -1.62936017275628 0 0 0
7076 1 1 0 84.72647803308881 22.845787454358003 -1.6156539405257868 0 0 0
10022 1 2 0 83.47914038978034 23.795923006005186 -2.058220537183897 0 0 0
10021 1 2 0 86.13859049100786 23.434451765669944 -2.1744453182976886 0 0 0
7075 1 1 0 89.94512783405192 22.251103895299607 -1.6277805817680593 0 0 0
10019 1 2 0 88.82950897818598 23.343744468741896 -2.1332528400935336 0 0 0
10020 1 2 0 91.46382296822081 22.83251938133519 -2.0481524966707907 0 0 0
9971 1 2 0 94.11497013733698 22.515959994281115 -2.0114267809819966 0 0 0
7078 1 1 0 92.89962870492616 23.611157675513596 -1.6269231904742738 0 0 0
9436 1 2 0 99.33699776750105 22.522545491279416 -2.104380805045231 0 0 0
9372 1 2 0 102.07698988906066 23.338277012272975 -2.1287574608187456 0 0 0
6695 1 1 0 100.52350258369982 23.56309859512965 -1.6429583484265964 0 0 0
9459 1 2 0 7.1081911098218855 25.879011266555523 -2.1423714873978223 0 0 0
6713 1 1 0 8.33752123062188 24.949121589598278 -1.6246690975551412 0 0 0
9462 1 2 0 9.851691031440335 25.185697093926677 -2.097986623238418 0 0 0
6715 1 1 0 11.074168537142555 26.11454939528318 -1.5918180764716294 0 0 0
9465 1 2 0 12.523030650849584 26.43199993557808 -2.197064396385055 0 0 0
10031 1 2 0 14.831128593450812 25.568925978810515 -2.134852491488861 0 0 0
7082 1 1 0 15.822667924789462 24.39387494630244 -1.5934056525531861 0 0 0
10030 1 2 0 17.129578615182396 25.322802571826788 -2.022155627220712 0 0 0
10028 1 2 0 19.46175775582456 25.01017292835615 -2.1458953495045785 0 0 0
7083 1 1 0 18.46053943585327 26.227964228444147 -1.6147927150052275 0 0 0
10029 1 2 0 21.75151599219494 25.04288747523771 -2.017362244117384 0 0 0
9986 1 2 0 24.189069357940255 24.422002574933227 -1.9981547485249804 0 0 0
7088 1 1 0 23.1883414017708 25.63604351842124 -1.6050887004220191 0 0 0
9985 1 2 0 26.634073060114694 24.740772372967005 -2.1760801931691587 0 0 0
9987 1 2 0 29.078473231544965 25.30820658534286 -2.170643931764755 0 0 0
7052 1 1 0 27.668057198928036 25.8922969193319 -1.6518596561334753 0 0 0
7053 1 1 0 30.42329563612093 24.55797348707384 -1.64187720612144 0 0 0
9989 1 2 0 31.308697698773678 26.02155132595141 -2.0366498382630938 0 0 0
9995 1 2 0 34.204843571900675 24.766936534077658 -2.116646615346681 0 0 0
7124 1 1 0 34.87004285250241 26.20977826881272 -1.643795253780653 0 0 0
9996 1 2 0 39.628079549882244 24.48750359595108 -2.1574487071294888 0 0 0
7093 1 1 0 40.54794271774507 25.69799669632361 -1.6271415485200273 0 0 0
10006 1 2 0 42.02210784698362 25.273013842432242 -2.197389103697545 0 0 0
7064 1 1 0 43.43347496609311 24.654885436921038 -1.6594927392768084 0 0 0
10005 1 2 0 44.630528762618326 25.590563195376347 -2.1834651148353794 0 0 0
7066 1 1 0 48.658476561118974 25.73070226349508 -1.6325174904389663 0 0 0