LAMMPS data file via write_data, version 23 Jun 2022, timestep = 7804

15480 atoms
2 atom types

5.250839817368913 199.1055174652297 xlo xhi
4.7350094200238475 171.6206738065357 ylo yhi
-100 100 zlo zhi

Masses

1 28.085
2 15.999

Atoms # full

6563 1 1 0 5.575355694230182 7.020687648274169 -1.6016305970158768 0 0 0
9226 1 2 0 6.885066134709044 6.1450321438712905 -2.0621738727039878 0 0 0
6566 1 1 0 8.051353003232293 5.0745084091532044 -1.605396853325894 0 0 0
9228 1 2 0 8.943113572022797 6.362124801885441 -2.148855210514299 0 0 0
6570 1 1 0 12.522409988401108 6.7965084620324605 -1.6137086487052232 0 0 0
9237 1 2 0 12.64418739999287 5.293424757323132 -2.1598603076105225 0 0 0
6817 1 1 0 18.32986410783605 5.473313643831046 -1.6189247270928897 0 0 0
9613 1 2 0 17.85478534304274 6.92870461986657 -2.1232108673571197 0 0 0
9616 1 2 0 19.886548338876352 5.468070671349705 -2.036165646101133 0 0 0
6823 1 1 0 21.395064470034576 5.902113115103906 -1.6134478751331 0 0 0
6831 1 1 0 27.97403694576456 5.538576928125929 -1.639987827977055 0 0 0
9636 1 2 0 27.621824082302926 7.166018362050851 -2.082700686404856 0 0 0
9639 1 2 0 29.57304171327529 5.022208668201237 -2.0110093915945915 0 1 0
6840 1 1 0 34.21194486129758 5.215990631055718 -1.643475744678683 0 0 0
9654 1 2 0 32.61808719743352 4.762077045424897 -2.10650660679914 0 1 0
9651 1 2 0 34.64751248854955 6.767098475077628 -2.0839972684286887 0 0 0
9664 1 2 0 40.45117515851453 6.276935327309323 -2.154036847272509 0 0 0
6847 1 1 0 40.06507914918734 4.787627392589883 -1.6069091932881705 0 0 0
6856 1 1 0 46.12944233763199 6.507349105570405 -1.6440020942167017 0 0 0
9681 1 2 0 45.948213408772396 4.9500371320573455 -2.132166505080553 0 0 0
9680 1 2 0 47.6052088311575 7.049747750983262 -2.139726134181882 0 0 0
6867 1 1 0 51.99839713181891 6.969844230109438 -1.6453700963638431 0 0 0
9699 1 2 0 52.32840062616441 5.459881367437374 -2.174247301981333 0 0 0
9708 1 2 0 59.12786180538314 5.809799106411771 -2.150695208702721 0 0 0
9716 1 2 0 63.64662027601752 6.835923570765294 -2.1563393153363037 0 0 0
6880 1 1 0 64.51433480645413 5.568573949763237 -1.6019004997098265 0 0 0
9720 1 2 0 66.00579713623738 5.2145315809848745 -2.1482541608528845 0 0 0
9726 1 2 0 68.57213224574639 5.54156298723828 -2.194266268738659 0 0 0
6883 1 1 0 69.71790301209106 6.513214161682829 -1.6617172787046595 0 0 0
9727 1 2 0 71.1409603047322 5.963549111110742 -2.182408231817812 0 0 0
6892 1 1 0 72.58990684991561 5.584698859708493 -1.5916357123664602 0 0 0
9738 1 2 0 73.54685810640548 6.826672658887289 -1.9251054942921304 0 0 0
9747 1 2 0 78.47088055707529 5.276791640644497 -2.145056880203393 0 0 0
6897 1 1 0 78.85480525345724 6.802504025172207 -1.6496558912124257 0 0 0
9748 1 2 0 80.38907043375887 7.076816303288416 -2.128339927029014 0 0 0
9762 1 2 0 83.07092844830193 6.6025572263181855 -2.0216491250429085 0 0 0
6916 1 1 0 84.49735099650458 5.9147648172470335 -1.6168352652818578 0 0 0
9778 1 2 0 85.72236423834636 6.9797476113520025 -2.0649236115573664 0 0 0
9790 1 2 0 90.4197867442926 4.891009443700811 -2.0662025370755654 0 0 0
6922 1 1 0 91.22677289605141 6.308720747329937 -1.640431612661831 0 0 0
9787 1 2 0 92.7866074317813 6.7129069652475 -2.09189962637728 0 0 0
9788 1 2 0 95.18866899619385 5.9228951135425 -1.9462201517029205 0 0 0
6460 1 1 0 101.385500119567 5.209101143170322 -1.6282524483416327 0 0 0
9035 1 2 0 101.86796513572659 6.760660978005296 -2.0746457599888157 0 0 0
9223 1 2 0 5.32676745986478 8.54343444872903 -2.1537426599812837 1 0 0
6565 1 1 0 9.607501836038164 7.757661614678952 -1.5913711936644708 0 0 0
9229 1 2 0 9.92689972176178 9.271999421860727 -2.155129258361706 0 0 0
9230 1 2 0 11.105221400408327 7.369961122590727 -2.054919251707843 0 0 0
9238 1 2 0 13.663640919201722 7.789579763675513 -2.150602037775052 0 0 0
6612 1 1 0 14.618686198620622 8.976973387152954 -1.6442056394609013 0 0 0
9302 1 2 0 16.10682591653722 8.770292339637924 -2.1957798962151043 0 0 0
6816 1 1 0 17.573378959940687 8.438552231402685 -1.6396795937798796 0 0 0
9614 1 2 0 18.621319527066834 9.547955272737818 -2.166086182231215 0 0 0
9623 1 2 0 21.89969732665343 7.365790437294068 -2.156444456109022 0 0 0
6822 1 1 0 22.275992729326646 8.871153585548779 -1.6102266673724983 0 0 0
9624 1 2 0 23.64781963415307 9.607310819055382 -2.103884368830696 0 0 0
6830 1 1 0 27.495932243711778 8.814487630207976 -1.6275382401734844 0 0 0
9650 1 2 0 33.90329904864138 9.364599867104669 -2.1336553101143676 0 0 0
6838 1 1 0 35.07219557615945 8.30945478620462 -1.628917756232467 0 0 0
9652 1 2 0 36.59313152458711 8.843108850015453 -2.0543285487717333 0 0 0
6842 1 1 0 38.035565858320275 9.562618120647985 -1.6379007084460449 0 0 0
9658 1 2 0 39.37335647811826 8.721705339506443 -2.12353312022412 0 0 0
6846 1 1 0 40.66585228291917 7.816425403154781 -1.6489141578447268 0 0 0
9665 1 2 0 42.16742439386187 8.286360307667502 -2.1349828969046127 0 0 0
6853 1 1 0 43.714153404664 8.569249305404767 -1.6278723892628357 0 0 0
9676 1 2 0 44.8561747119987 7.464991536165469 -2.0815089116098244 0 0 0
9683 1 2 0 48.77164180697684 9.379633729092227 -1.900463922141673 0 0 0
6859 1 1 0 48.971240985506974 7.790569268379055 -1.5975537757837297 0 0 0
9686 1 2 0 50.469313465416455 7.353589873712017 -2.122651849181682 0 0 0
9697 1 2 0 53.20837915818664 7.9862204174652085 -2.111978856593948 0 0 0
6866 1 1 0 54.24934202746938 9.159312778668477 -1.6063299308156485 0 0 0
9698 1 2 0 55.812261841394154 9.224342325923669 -2.1397440806258703 0 0 0
9704 1 2 0 58.43841110577992 8.412715156498212 -2.1217140709150866 0 0 0
6870 1 1 0 57.35647218032871 9.5499745366476 -1.6415720664854005 0 0 0
6873 1 1 0 59.55619007495214 7.3140998362259015 -1.6308834802155132 0 0 0
9709 1 2 0 61.07977462891085 7.761553001389528 -2.0661667304630082 0 0 0
6877 1 1 0 62.644857501466014 8.025541468325569 -1.630555347483025 0 0 0
9715 1 2 0 63.258834238781304 9.471523216110832 -2.1046778866397027 0 0 0
6881 1 1 0 68.78705486185169 9.377134669117844 -1.5780623399798752 0 0 0
9723 1 2 0 69.18082460832409 7.939279870143757 -2.189929791752402 0 0 0
9734 1 2 0 72.76369830875832 9.32443747805703 -2.1780258193483824 0 0 0
6891 1 1 0 73.90813395418063 8.342203387867746 -1.5860837321817818 0 0 0
9739 1 2 0 75.44198336885816 8.514220809801577 -2.029375833395889 0 0 0
6893 1 1 0 76.84971176205592 9.205971552467872 -1.5935830873678618 0 0 0
9742 1 2 0 77.93837154768036 8.08887583173511 -2.1355917154839625 0 0 0
6905 1 1 0 81.84667008993725 7.58418775439956 -1.6081102893147665 0 0 0
9758 1 2 0 82.15489750312781 9.097087581507381 -2.113941388681979 0 0 0
6915 1 1 0 86.57504148984052 8.359828530134855 -1.6169552038333337 0 0 0
9779 1 2 0 88.12276394386122 8.709872795209593 -2.1235264965850167 0 0 0
6919 1 1 0 89.68293070109108 9.023307337212572 -1.6418282508665998 0 0 0
9785 1 2 0 90.45143213283606 7.664660228533021 -2.160289084920802 0 0 0
6921 1 1 0 94.2969614043719 7.230149836108361 -1.5932985855142416 0 0 0
9789 1 2 0 95.36960210193193 8.39079557846396 -2.1341768938114347 0 0 0
6926 1 1 0 96.4575106191334 9.544180337084194 -1.6104249706523228 0 0 0
9034 1 2 0 100.86741907575555 9.355208002830445 -2.126724883326547 0 0 0
6452 1 1 0 102.13877070788068 8.370230858496114 -1.6321656487254423 0 0 0
9224 1 2 0 5.610044482877877 11.387693523672873 -2.0730637243353676 1 0 0
9234 1 2 0 9.282980482633894 11.723420696189038 -1.9347669173090967 0 0 0
6569 1 1 0 10.489354389867408 10.709042696362285 -1.6100543270906074 0 0 0
9236 1 2 0 11.868538434862762 11.477271836592422 -2.0840349441494888 0 0 0
6613 1 1 0 13.4228435138255 11.768207156797072 -1.637000630104972 0 0 0
9301 1 2 0 14.105187274311085 10.404609228782013 -2.159204975606829 0 0 0
6819 1 1 0 19.701402955681402 10.612866565463918 -1.5971731535644997 0 0 0
9619 1 2 0 21.153715794542048 9.996664046197134 -1.9570062161488664 0 0 0
6827 1 1 0 24.787916073506555 10.694299867039533 -1.6334883220680503 0 0 0
9632 1 2 0 26.18199405117551 9.81238620422793 -2.006906975457726 0 0 0
9637 1 2 0 28.770530468922793 9.775061190894421 -2.1077253651641668 0 0 0
6834 1 1 0 29.828922274997836 10.96814348384829 -1.655760733136398 0 0 0
9644 1 2 0 31.38205105790012 10.645147544712014 -2.1254282765821593 0 0 0
6839 1 1 0 32.95879351709351 10.619035367461688 -1.6327346498275686 0 0 0
9653 1 2 0 33.74980564176078 11.984484347506728 -2.0709072610186605 0 0 0
9657 1 2 0 38.283209822966484 11.130570178500903 -2.1239511445342125 0 0 0
9675 1 2 0 44.13297360242739 10.086626807216431 -2.090081595439651 0 0 0
6854 1 1 0 44.269463107807105 11.650415696218792 -1.6232484160204417 0 0 0
9682 1 2 0 48.27400717661546 12.044774393853672 -2.153439514773695 0 0 0
6857 1 1 0 49.29710561283252 10.889145315446157 -1.6096058566531457 0 0 0
9684 1 2 0 50.83146261482209 11.08107920452794 -2.1208831920011604 0 0 0
6862 1 1 0 52.29129976511007 11.593326875971705 -1.6137792679468654 0 0 0
9691 1 2 0 53.51961536083605 10.579297052127671 -1.9449443440700307 0 0 0
9703 1 2 0 57.90067882436746 11.03346114120021 -2.1000078888520837 0 0 0
9717 1 2 0 62.50113278392273 11.979631046806166 -2.0687660882432 0 0 0
6878 1 1 0 63.71081802325578 10.976150009577314 -1.6285575125164187 0 0 0
9718 1 2 0 65.19498857396277 11.498677007165035 -2.133903417006693 0 0 0
6882 1 1 0 66.75267364557543 11.640746385484826 -1.611915342867266 0 0 0
9722 1 2 0 67.4548093807603 10.210140879601662 -1.9321421091197768 0 0 0
9724 1 2 0 70.11878938123832 10.195623266379243 -1.9540827611910319 0 0 0
6888 1 1 0 71.67612431632536 10.377811022135097 -1.602712632793082 0 0 0
9733 1 2 0 72.00981166323882 11.850826263352362 -2.109089557364661 0 0 0
6894 1 1 0 75.15683438784163 11.852029881349939 -1.6059432997424794 0 0 0
9741 1 2 0 76.0813469057134 10.583443671971827 -2.138883740631225 0 0 0
9757 1 2 0 80.9548892063237 11.487585862538523 -2.121748439216251 0 0 0
6903 1 1 0 82.2638752260631 10.641432759660086 -1.6244579711404181 0 0 0
9759 1 2 0 83.7169173474888 11.313046046413584 -1.9680368921157028 0 0 0
6911 1 1 0 85.31707366678783 11.27393048196563 -1.609361048350476 0 0 0
9772 1 2 0 85.82260813477919 9.766581826885897 -2.034343747676131 0 0 0
9782 1 2 0 90.46752993010168 10.435024782751118 -2.0757673115929163 0 0 0
6918 1 1 0 91.41552793578204 11.740120769683053 -1.6210187607816129 0 0 0
9784 1 2 0 93.00344038402947 11.81445478763071 -2.1409999695424538 0 0 0
6927 1 1 0 94.56442128359627 12.055375629833403 -1.604992518096423 0 0 0
9796 1 2 0 95.64283856158961 10.901743035199193 -2.0278447663488217 0 0 0
9043 1 2 0 98.0704849722206 9.680151311733058 -2.02933094666678 0 0 0
6456 1 1 0 99.57012698517957 10.303291553303177 -1.6272687215944883 0 0 0
9042 1 2 0 99.67292916416942 11.919247972526957 -2.0444854144403664 0 0 0
6567 1 1 0 5.763466510640347 12.953663078676035 -1.6160990311436805 0 0 0
9232 1 2 0 7.261817748825123 13.480338852335372 -2.0007375309848787 0 0 0
6568 1 1 0 8.824763199237502 13.230321240289141 -1.6156386427694143 0 0 0
9235 1 2 0 10.117534196028565 14.070056528669603 -2.1808639062373203 0 0 0
9303 1 2 0 14.45484079901797 12.941957679804975 -2.137459325086482 0 0 0
6821 1 1 0 15.722318314841683 13.845971191557497 -1.611257638712931 0 0 0
9620 1 2 0 17.236127720032016 13.616515951419263 -2.1754740900171727 0 0 0
9618 1 2 0 19.452674446954457 12.144852005084775 -2.0771524057805584 0 0 0
6820 1 1 0 18.781106621304872 13.563272309048566 -1.6392214106935983 0 0 0
6828 1 1 0 23.748427791505758 13.80729016078531 -1.619696809675316 0 0 0
9631 1 2 0 24.328061755140613 12.275136451077064 -2.117245541713067 0 0 0
9633 1 2 0 22.26625239845659 14.541780263779433 -1.9587315364639228 0 0 0
9643 1 2 0 29.413742609881577 12.513596881390137 -2.099618122332477 0 0 0
6835 1 1 0 29.46470787011017 14.087675058650222 -1.5980747690774209 0 0 0
6844 1 1 0 34.24806732400165 13.468771111787714 -1.6290198982530295 0 0 0
9661 1 2 0 35.68011549477555 14.037339103484529 -2.1381942148072026 0 0 0
9659 1 2 0 38.15778672632868 13.95793357329164 -2.0509797112654224 0 0 0
6843 1 1 0 38.91041453825077 12.574443711290222 -1.6133309743596298 0 0 0
9660 1 2 0 40.47685567976909 12.81326643946736 -1.9872745090390151 0 0 0
6855 1 1 0 41.86241524404653 13.593171054827662 -1.6244108733320533 0 0 0
9677 1 2 0 43.072190532052936 12.63022360084766 -2.152759793828166 0 0 0
9678 1 2 0 45.67188555345469 12.341577032719565 -2.0864066550454257 0 0 0
6858 1 1 0 47.07611171334976 13.030362080872484 -1.6195420052929594 0 0 0
9690 1 2 0 52.576394741985816 13.100876004939314 -2.160903201880253 0 0 0
9705 1 2 0 57.230678284617476 13.614541987011402 -2.070222374173356 0 0 0
6871 1 1 0 58.39203313699241 12.531854636473597 -1.6264769819439253 0 0 0
9706 1 2 0 59.92513101991297 12.925743606039267 -2.122826116029658 0 0 0
6879 1 1 0 61.4833610780619 13.17768792648893 -1.629779055184143 0 0 0
9725 1 2 0 67.93828988316075 12.670387577899609 -2.1467280349507485 0 0 0
6890 1 1 0 69.2145782291691 13.594183358205424 -1.6427816231976737 0 0 0
9735 1 2 0 70.78952769298442 13.435235265114711 -2.102847965009593 0 0 0
6889 1 1 0 72.37961941831108 13.363436328507422 -1.5762393547500513 0 0 0
9736 1 2 0 73.82276656461765 12.69427707966307 -2.112181662040919 0 0 0
9743 1 2 0 76.13471075802937 13.030774204258508 -2.107202427099366 0 0 0
6906 1 1 0 77.26156045797694 14.063860238677577 -1.6427715404557244 0 0 0
9760 1 2 0 78.63586689649823 13.357693052323672 -2.1703773762336054 0 0 0
6904 1 1 0 80.02252244473823 12.719827534303272 -1.592860783815165 0 0 0
9761 1 2 0 81.0401506318433 13.921716591753757 -1.9438624174169168 0 0 0
9771 1 2 0 86.1934420512751 12.585237229384044 -2.1323604106082095 0 0 0
6912 1 1 0 86.79439299208401 14.061694276133728 -1.6604914976388585 0 0 0
9774 1 2 0 88.35069521499814 14.403974997547 -2.122396683905726 0 0 0
9783 1 2 0 90.72678410791846 13.194286271879353 -2.01001218833927 0 0 0
9797 1 2 0 95.32578954172392 13.466671913366923 -1.9682324408955518 0 0 0
6457 1 1 0 99.52820479097257 13.535502987446806 -1.6374085374083394 0 0 0
9044 1 2 0 98.03144766140684 14.166985228946032 -2.076498292414104 0 0 0
9040 1 2 0 100.85856230901156 14.437366328290317 -2.1453965804012194 0 0 0
6611 1 1 0 11.250451701024174 15.13714411925982 -1.6480209340592151 0 0 0
9298 1 2 0 10.36858958223317 16.371147051945314 -2.183446441502469 0 0 0
9300 1 2 0 12.755386535938872 15.568090015822843 -2.119407059595092 0 0 0
6962 1 1 0 14.07908100543428 16.393056558178472 -1.6077752431000731 0 0 0
9622 1 2 0 15.307933517242548 15.384807964618519 -1.8581222766319025 0 0 0
9621 1 2 0 19.727451845103445 14.820350278259973 -2.0851462932695655 0 0 0
6829 1 1 0 21.057719096086085 15.673001094376836 -1.6257886833531525 0 0 0
9634 1 2 0 24.542495713668394 15.174002059446703 -2.118285493533479 0 0 0
6836 1 1 0 25.05546993553309 16.654718518594116 -1.614244570163158 0 0 0
9647 1 2 0 26.564756368541268 16.893589275223956 -2.1436165114555674 0 0 0
9645 1 2 0 28.62361418369627 15.398652507491539 -2.1434121415541054 0 0 0
6837 1 1 0 28.104971866949686 16.88035078381404 -1.653833372492155 0 0 0
9646 1 2 0 30.843064468548526 14.843050206243467 -2.0375102237583955 0 0 0
6934 1 1 0 32.16409537554463 15.684045150758326 -1.6157826407216254 0 0 0
9662 1 2 0 33.28117486781448 14.652312944825546 -2.160999709906756 0 0 0
6845 1 1 0 36.93259779528161 14.948667511156012 -1.6322405854331594 0 0 0
9663 1 2 0 36.937046648127605 16.516596305251838 -2.1275877544725117 0 0 0
9679 1 2 0 41.96005289132998 15.151723865399736 -2.14370061170612 0 0 0
6937 1 1 0 42.32430944755931 16.66279919791581 -1.602040666629865 0 0 0
9811 1 2 0 43.90582042795945 16.978895832076052 -1.8362563557446774 0 0 0
9685 1 2 0 47.20642990738359 14.612120245451138 -2.043851102290279 0 0 0
6864 1 1 0 47.654829684518596 16.14621853884316 -1.6379305499457084 0 0 0
9694 1 2 0 49.216347174042475 16.393629059320677 -2.144424410534511 0 0 0
6865 1 1 0 50.74893707502711 16.77496182245574 -1.6355183786579621 0 0 0
6863 1 1 0 53.03899840710512 14.573144640903744 -1.6272257880623355 0 0 0
9692 1 2 0 51.96377376569447 15.741537456469755 -2.0681739029305315 0 0 0
9693 1 2 0 54.60973216317087 14.690383653804433 -2.0972087782781506 0 0 0
6872 1 1 0 56.178779798325394 14.796954418875123 -1.6220860101100538 0 0 0
9707 1 2 0 56.65371675220064 16.26065523650799 -2.162091635626456 0 0 0
6945 1 1 0 62.648594359999485 16.07440167883034 -1.63974465011145 0 0 0
9719 1 2 0 62.19360631230551 14.573743953016708 -2.1262640680624574 0 0 0
9822 1 2 0 61.328811226247645 16.958796644577255 -2.077770256530322 0 0 0
9823 1 2 0 64.15915017057743 16.56607785327225 -2.1462534781522122 0 0 0
9830 1 2 0 67.1517169096287 16.772528371171916 -2.128342933431997 0 0 0
9737 1 2 0 68.97956529661676 15.103669032036574 -2.173658952999054 0 0 0
6950 1 1 0 68.71984054199235 16.610190668004094 -1.6494780431518408 0 0 0
9763 1 2 0 76.74520977511197 15.522877195868539 -2.1521239527951233 0 0 0
9776 1 2 0 80.4476318097717 16.530691980957204 -2.175248799394546 0 0 0
6913 1 1 0 81.4922026336949 15.418569419734618 -1.5921060676094505 0 0 0
9775 1 2 0 83.05986600707452 15.481427249434216 -1.9846481101116769 0 0 0
6914 1 1 0 84.48303797865849 16.157692170002157 -1.602375019487307 0 0 0
9773 1 2 0 85.74708832266789 15.249796259287109 -2.130218490831856 0 0 0
6920 1 1 0 89.924390295861 14.58340525920942 -1.6072821677457136 0 0 0
9786 1 2 0 90.74884289738715 15.971928290023069 -2.0424155267974897 0 0 0
6956 1 1 0 96.47436097750618 14.596135200476562 -1.6041647637292369 0 0 0
9839 1 2 0 95.72158245782421 16.005008395370467 -2.089265380203808 0 0 0
6609 1 1 0 6.356862196503169 17.338694528668704 -1.60702396189588 0 0 0
9297 1 2 0 6.014900049052215 18.859154325484653 -1.9947760019838752 0 0 0
6610 1 1 0 9.39812371134214 17.510838294933862 -1.6227602594425439 0 0 0
9296 1 2 0 7.887475304648043 17.24164353111875 -2.128917884743204 0 0 0
9299 1 2 0 10.206791786957881 18.823547307911582 -2.079538015592246 0 0 0
9847 1 2 0 14.392805394310514 17.90057180400159 -2.1501453063953586 0 0 0
6966 1 1 0 14.270895070027674 19.447071160732346 -1.6325173320551076 0 0 0
9635 1 2 0 20.96220871321417 17.295130394509748 -2.118412215491329 0 0 0
6965 1 1 0 20.824524436569234 18.920322096914102 -1.6201572168167953 0 0 0
9648 1 2 0 24.267676153050978 18.039830814614106 -2.0002612077495745 0 0 0
9649 1 2 0 28.822293386075717 18.275254231825432 -2.148591761270474 0 0 0
9806 1 2 0 32.32731431731576 17.210213499521718 -2.1588894799301652 0 0 0
6974 1 1 0 32.49309717650606 18.73537898777554 -1.6056279466518337 0 0 0
9813 1 2 0 36.30303239741132 19.302762592738997 -2.070453452967615 0 0 0
6938 1 1 0 37.27695886866124 18.051726527103906 -1.6381633264619426 0 0 0
9812 1 2 0 38.77391557075246 18.42420713047943 -2.1622989153346466 0 0 0
6939 1 1 0 40.2137935096414 18.955629197664848 -1.6173571599016037 0 0 0
9810 1 2 0 41.396862464143844 17.92465079725807 -2.106663549232766 0 0 0
6942 1 1 0 45.117503628716264 18.048366255957404 -1.5904742640667464 0 0 0
9695 1 2 0 46.51743915074911 17.28289153637971 -2.0913923038521025 0 0 0
9696 1 2 0 51.133120673502724 18.296193015721997 -2.126523677457823 0 0 0
9825 1 2 0 55.86109431820002 18.829319535250796 -2.135552813284999 0 0 0
6946 1 1 0 57.034668497502174 17.76256393226928 -1.6525898813074105 0 0 0
9824 1 2 0 58.605043804377296 17.936859105362352 -2.1288696685820048 0 0 0
6947 1 1 0 60.173571040902615 18.03595545499584 -1.6326640734061935 0 0 0
9826 1 2 0 60.753255244668 19.455124130055967 -2.1625776954351563 0 0 0
6951 1 1 0 65.62406812669786 17.12970638275669 -1.598454831396105 0 0 0
9832 1 2 0 65.93181497782672 18.67832732959261 -2.0259394586966555 0 0 0
9831 1 2 0 69.97634653323279 17.556586678698206 -2.1481486075292566 0 0 0
6986 1 1 0 71.14235746032769 18.592019557881127 -1.6034650158820758 0 0 0
9881 1 2 0 72.70233008515254 18.71545164055532 -2.1158707635454954 0 0 0
9837 1 2 0 75.26452498845367 18.001724828929543 -2.153215565689113 0 0 0
6993 1 1 0 74.21612089038501 19.1557973697052 -1.6397428460535795 0 0 0
6954 1 1 0 76.46162213011137 17.035032532000734 -1.6050150344532592 0 0 0
9836 1 2 0 77.89736593672187 17.692811048495592 -1.9744120240357315 0 0 0
6955 1 1 0 79.47105539127418 17.70817954182163 -1.599779425629679 0 0 0
9838 1 2 0 80.0606878847979 19.14610581835884 -2.021423130076689 0 0 0
9777 1 2 0 84.12527716491273 17.66562836796828 -2.1361897373436274 0 0 0
6997 1 1 0 83.86027295909808 19.208184176852086 -1.648924247612695 0 0 0
6957 1 1 0 91.55045366064516 17.38453695046124 -1.6297963067661967 0 0 0
9841 1 2 0 90.65659642594537 18.72779840363285 -2.1308915467126828 0 0 0
9840 1 2 0 93.18474929332788 17.350274647697187 -2.058276789761522 0 0 0
6958 1 1 0 94.81709006751784 17.332939519326004 -1.6375569529472263 0 0 0
9842 1 2 0 95.71758462403929 18.641493551023668 -2.1414189105390427 0 0 0
9306 1 2 0 101.06912945097861 19.226718595536994 -2.157802486242568 0 0 0
6649 1 1 0 6.229489083539846 20.39971838576508 -1.6031441626416045 0 0 0
9357 1 2 0 7.588983293282128 21.07477749030426 -2.1782991039694473 0 0 0
6651 1 1 0 8.917849934726071 21.813842087736795 -1.6221369236830385 0 0 0
6652 1 1 0 11.267595176350351 19.944376234684785 -1.594459218603283 0 0 0
9359 1 2 0 10.32286335143364 21.15622655822127 -2.03765502596022 0 0 0
9361 1 2 0 12.774620046540798 19.82317906759498 -2.1301832770436766 0 0 0
9853 1 2 0 15.152006391978482 20.728754128470975 -2.109275959870158 0 0 0
6967 1 1 0 18.81961417437199 21.49255733166877 -1.6272657644933761 0 0 0
9851 1 2 0 19.57271168604584 20.006658169399145 -2.0222473307643947 0 0 0
9852 1 2 0 22.289340733194777 19.64800130175103 -1.9311137551361857 0 0 0
6971 1 1 0 23.92055102818029 19.605210552241363 -1.610544494556348 0 0 0
9859 1 2 0 25.02964837911296 20.780064624057864 -2.1090616732848537 0 0 0
9865 1 2 0 29.20642664294647 21.16088349585687 -2.084706517047981 0 0 0
6975 1 1 0 29.53990184860979 19.642039358145144 -1.58312163365548 0 0 0
9863 1 2 0 31.12745268128444 19.546751932364668 -1.8810856748851603 0 0 0
9864 1 2 0 33.75203846915548 19.603918688628937 -2.1594128871647564 0 0 0
6977 1 1 0 35.10810560589566 20.33512811283497 -1.6166073239208152 0 0 0
9814 1 2 0 40.287966399659965 20.551291850120705 -1.9874738902159725 0 0 0
7012 1 1 0 43.85870432260935 20.99192097640331 -1.6379359586861615 0 0 0
9921 1 2 0 42.38359057847986 21.697730280417755 -2.0617495344896404 0 0 0
9818 1 2 0 44.43384520130544 19.48727306904807 -2.1059251570463515 0 0 0
9870 1 2 0 50.43455502438491 20.91459254515923 -2.131896903205698 0 0 0
6979 1 1 0 51.590693060824144 19.802854833515692 -1.6449369234990412 0 0 0
9869 1 2 0 53.19049942184286 20.01368712231776 -2.077319509575778 0 0 0
6980 1 1 0 54.795106064455496 19.995306128672556 -1.6126705377819646 0 0 0
9871 1 2 0 55.57347411842229 21.381647883144584 -2.0292933142548373 0 0 0
9930 1 2 0 59.838095851618235 21.850814893660047 -1.8309171923437586 0 0 0
7018 1 1 0 61.133295963349994 20.91845167406255 -1.5967903759049866 0 0 0
9931 1 2 0 62.538774505325726 21.52412071058351 -2.1425059303877014 0 0 0
9883 1 2 0 65.24625998970922 21.00664089222087 -2.1699318572514534 0 0 0
7023 1 1 0 64.02439566810571 21.902976368389364 -1.6076856562170136 0 0 0
6987 1 1 0 66.50547136923181 20.147646560081025 -1.621451832017041 0 0 0
9882 1 2 0 67.9615037160835 20.677987338989112 -2.1607290281001346 0 0 0
9880 1 2 0 70.5354359038848 20.04534648284114 -1.9809441286196814 0 0 0
6988 1 1 0 69.43438856692984 21.167997496235916 -1.613773857833524 0 0 0
9892 1 2 0 74.70273556717369 20.678631332779574 -2.0523025751914106 0 0 0
9900 1 2 0 79.91501412062732 21.609433972017513 -2.124450587313464 0 0 0
6998 1 1 0 80.96435776049356 20.429284955925706 -1.6093974038698633 0 0 0
9898 1 2 0 82.48506039218219 20.00131644302544 -2.1217676615326897 0 0 0
9899 1 2 0 85.29801962791436 19.796149051718245 -2.1625096770197763 0 0 0
7002 1 1 0 86.61335037592225 20.61875084334235 -1.6411356450500654 0 0 0
9904 1 2 0 88.12085299111631 20.11359125426503 -2.0910593239796187 0 0 0
7001 1 1 0 89.7238317139368 20.04283509788769 -1.6470333973372588 0 0 0
9905 1 2 0 90.32914478727501 21.52071645689822 -2.100057488987349 0 0 0
7033 1 1 0 96.73608085772965 19.845269093519875 -1.6242704550157496 0 0 0
9953 1 2 0 96.13805231409121 21.32489613243128 -2.0092241946929263 0 0 0
9413 1 2 0 98.3219105004617 19.824259939833375 -2.0977707831809114 0 0 0
6684 1 1 0 99.85893074736016 20.19651040482854 -1.6315902657240424 0 0 0
9412 1 2 0 100.40289721686628 21.66890110543949 -2.092227437082312 0 0 0
6679 1 1 0 6.307124834631857 24.15137269800767 -1.6333513157158726 0 0 0
9360 1 2 0 9.249220623834569 23.277676561464155 -2.164015767744949 0 0 0
9496 1 2 0 14.247381206017208 23.288534067165774 -2.041419996344337 0 0 0
6739 1 1 0 12.937088036642539 24.35480293914756 -1.6361784713437577 0 0 0
6968 1 1 0 15.586644286434568 22.245104310434936 -1.647182964767004 0 0 0
9854 1 2 0 17.253213734959814 22.053001948773883 -2.0683662363267876 0 0 0
9855 1 2 0 19.960510712695438 22.643396016660397 -2.0296365482996213 0 0 0
7048 1 1 0 20.791530211234623 24.020198827153255 -1.6184652395964996 0 0 0
9976 1 2 0 22.378320067118054 24.257245037575597 -2.051851717467674 0 0 0
7047 1 1 0 25.842943560608592 22.191059266941178 -1.6507363832136872 0 0 0
9974 1 2 0 24.897783316261375 23.44025776342423 -2.155597455154597 0 0 0
9975 1 2 0 27.42257557362763 22.62575919441627 -2.0621861294485138 0 0 0
7050 1 1 0 29.065740166364343 22.73708952143498 -1.606876306846175 0 0 0
9979 1 2 0 30.477190120635424 23.617430256654387 -2.045421920083851 0 0 0
9980 1 2 0 33.47172650122988 24.081367505142747 -2.0336620359527227 0 0 0
9867 1 2 0 35.19388105301022 21.924440189923107 -2.0341661707388936 0 0 0
7051 1 1 0 35.07071726317432 23.52551910378931 -1.6097107967805786 0 0 0
9981 1 2 0 36.672635556602906 24.042905307614852 -2.0103126151181305 0 0 0
7054 1 1 0 38.321178836283224 24.3479470558548 -1.6294642163564754 0 0 0
9923 1 2 0 39.58781890672806 23.24167564315423 -2.0740746841350215 0 0 0
7013 1 1 0 40.781591481597424 22.080323188660746 -1.6021197488901906 0 0 0
9922 1 2 0 45.115429842774766 21.915260836674573 -2.139032447654956 0 0 0
7015 1 1 0 46.28938352120563 22.939874433905036 -1.646142538235007 0 0 0
9924 1 2 0 47.790020059465164 22.372162567436956 -2.1037380497561675 0 0 0
7014 1 1 0 49.37309186130985 22.111403330352868 -1.629369822739449 0 0 0
9925 1 2 0 50.038329685443756 23.52834978615689 -2.0994748142721034 0 0 0
9933 1 2 0 55.05468630435958 23.95662078946769 -2.160357564636202 0 0 0
7019 1 1 0 56.13967284512586 22.864266984824496 -1.6305583367519618 0 0 0
9932 1 2 0 57.661830863187205 23.23505436263767 -2.1307021328698523 0 0 0
7020 1 1 0 59.20870228377826 23.319713688730076 -1.5837759641725666 0 0 0
9934 1 2 0 60.453466162844094 24.238767803517607 -2.14473311500847 0 0 0
9938 1 2 0 64.55960005541891 23.371418667339896 -1.9969069677396896 0 0 0
9884 1 2 0 70.07571624350169 22.591891935151775 -2.096863562787223 0 0 0
7062 1 1 0 70.54225420865588 24.095089001773943 -1.6316937997146534 0 0 0
9941 1 2 0 74.58898109777195 23.412659161069662 -2.0516479031693353 0 0 0
7025 1 1 0 75.47055120074656 22.076602540420623 -1.6196756208859944 0 0 0
9940 1 2 0 77.05744922238705 22.09762262461628 -2.114352575536713 0 0 0
7026 1 1 0 78.59238625080238 22.478815376207343 -1.6244153410868578 0 0 0
9942 1 2 0 78.80679788689501 24.056154076494977 -1.9671956592170223 0 0 0
7072 1 1 0 85.11108905849107 23.3311933360355 -1.5953338574854745 0 0 0
10011 1 2 0 83.66726459201507 23.990490864608013 -2.0202073002316734 0 0 0
9906 1 2 0 85.99184126451128 22.059797645039566 -2.136879400645708 0 0 0
7034 1 1 0 90.73132610783733 23.04067776630964 -1.589191316096075 0 0 0
9954 1 2 0 92.28256737291683 23.44664218346913 -1.8853769960154063 0 0 0
9956 1 2 0 94.80781684501186 23.767261874564497 -2.1671072501668456 0 0 0
7035 1 1 0 96.09659280679978 22.914895766246133 -1.6210574204446369 0 0 0
9957 1 2 0 97.43486845305988 23.722542163482398 -2.086720208412887 0 0 0
6685 1 1 0 101.14043733063137 23.047831248998165 -1.6213420414619066 0 0 0
9414 1 2 0 100.0731866514847 24.22877599388447 -1.9644045443674323 0 0 0
9405 1 2 0 7.876796399618388 24.720819930562477 -1.9900145695458202 0 0 0
6682 1 1 0 9.598449577712536 24.774376809680643 -1.5926966197954187 0 0 0
9409 1 2 0 11.254134515888175 24.403709210836446 -2.0036232892664354 0 0 0
9495 1 2 0 13.329511480536608 25.87023859747426 -2.1589835077969397 0 0 0
9977 1 2 0 20.05489088002513 25.38986283213035 -2.1384230166030784 0 0 0
7049 1 1 0 23.9336155039115 24.659262106429058 -1.6195762554027349 0 0 0
9978 1 2 0 24.639714194471658 26.11269351131433 -2.0295675695799233 0 0 0
7052 1 1 0 31.851342942255076 24.57346216863012 -1.643387085105431 0 0 0
9982 1 2 0 31.5111216415164 26.162045464890873 -2.1231461384319283 0 0 0
9984 1 2 0 38.62471158129337 25.963186562117773 -2.0263387381504137 0 0 0
10036 1 2 0 43.38250949528225 26.440015148327795 -1.9766115300695175 0 0 0
7088 1 1 0 44.864993889258244 25.7626785622285 -1.5906890585794171 0 0 0
9926 1 2 0 45.5985391170499 24.37185356384198 -2.1464191550073575 0 0 0
10037 1 2 0 46.0769317867815 26.802254364258843 -1.928470703558578 0 0 0
7058 1 1 0 50.85419381997809 24.8366966386494 -1.5902565699682365 0 0 0
9991 1 2 0 50.36735418171187 26.296015151587053 -2.144580637964718 0 0 0
9990 1 2 0 52.41843730209996 24.542108045424172 -1.8965802897558397 0 0 0
7059 1 1 0 53.94034626346013 24.996183244287657 -1.6019828739268702 0 0 0
9992 1 2 0 54.13796365005811 26.505264875963864 -2.147101772790007 0 0 0
10047 1 2 0 60.934258386946446 26.641125785385377 -2.188401897968333 0 0 0
7095 1 1 0 61.627088055592665 25.28412995972847 -1.6527824510572762 0 0 0
9999 1 2 0 63.209110980545375 25.288814637338273 -2.118548297637395 0 0 0
7063 1 1 0 64.74080477785371 24.92980524348631 -1.590938254397717 0 0 0
9998 1 2 0 66.26326497618496 25.29446623729214 -2.1390534445993374 0 0 0
7064 1 1 0 67.79266573293538 25.698096382864062 -1.6399687441913509 0 0 0
9996 1 2 0 69.1764761957352 24.91395397623476 -2.083285639159155 0 0 0
9997 1 2 0 72.07786311018175 24.550502389371687 -2.1332407593829417 0 0 0