ITEM: TIMESTEP
1787
ITEM: NUMBER OF ATOMS
15720
ITEM: BOX BOUNDS pp pp pp
0.0000000000000000e+00 2.0597511533499079e+02
0.0000000000000000e+00 1.7763672685172500e+02
-1.0000000000000000e+02 1.0000000000000000e+02
ITEM: ATOMS id type element x y z v_uncoordination
1 1 Si 176.338 41.3954 1.63242 0
2 1 Si 179.715 41.5718 1.62615 0
3 1 Si 178.565 36.0491 1.62626 0
4 1 Si 181.631 35.8889 1.6183 0
5 1 Si 176.384 38.2748 1.62746 0
6 1 Si 182.123 39.1253 1.60959 0
7 1 Si 180.61 44.6554 1.63038 0
8 1 Si 178.409 47.2013 1.61966 0
9 1 Si 173.311 42.8855 1.64284 0
10 1 Si 172.833 46.1843 1.62225 0
11 1 Si 175.267 48.4012 1.63511 0
12 1 Si 183.89 45.1429 1.62448 0
13 1 Si 183.532 48.3004 1.6341 0
14 1 Si 180.567 49.5256 1.62855 0
15 1 Si 113.856 2.66766 1.62979 0
16 1 Si 117.184 2.80402 1.64213 0
17 1 Si 111.224 5.58503 1.60844 0
18 1 Si 119.349 5.42918 1.62676 0
19 1 Si 110.36 9.22955 1.63288 0
20 1 Si 116.301 10.6325 1.61915 0
21 1 Si 113.032 11.1533 1.63775 0
22 1 Si 118.93 8.74373 1.65318 0
23 1 Si 113.645 176.634 1.63975 0
24 1 Si 118.438 177.32 1.62394 0
25 1 Si 115.137 173.255 1.63175 0
26 1 Si 118.2 173.991 1.635 0
27 1 Si 108.215 4.15546 1.62796 0
28 1 Si 108.331 0.769264 1.62663 0
29 1 Si 110.559 175.866 1.62602 0
30 1 Si 123.492 1.57479 1.60884 0
31 1 Si 122.593 4.66098 1.63209 0
32 1 Si 121.531 176.808 1.62822 0
33 1 Si 125.264 176.438 1.56964 0
34 1 Si 128.525 3.14738 1.59522 0
35 1 Si 128.293 6.21248 1.64844 0
36 1 Si 127.949 0.134334 1.60501 0
37 1 Si 125.107 6.77718 1.63979 0
38 1 Si 122.785 173.871 1.61963 0
39 1 Si 125.895 173.188 1.61258 0
40 1 Si 131.162 1.52708 1.60542 0
41 1 Si 133.842 3.01495 1.6199 0
42 1 Si 134.211 6.11834 1.62459 0
43 1 Si 131.291 7.49314 1.62234 0
44 1 Si 130.544 176.115 1.59536 0
45 1 Si 136.011 0.784277 1.6325 0
46 1 Si 139.469 5.26754 1.64365 0
47 1 Si 137.154 7.40986 1.62851 0
48 1 Si 138.842 2.11845 1.63521 0
49 1 Si 132.589 173.795 1.62498 0
50 1 Si 135.326 175.33 1.63316 0
51 1 Si 142.416 6.42867 1.632 0
52 1 Si 143.591 9.43068 1.61834 0
53 1 Si 138.024 10.5467 1.62626 0
54 1 Si 141.203 11.6715 1.62763 0
55 1 Si 144.323 3.9733 1.62362 0
56 1 Si 143.849 0.899335 1.61657 0
57 1 Si 140.953 177.442 1.63017 0
58 1 Si 147.369 4.34167 1.62847 0
59 1 Si 148.686 7.14169 1.62061 0
60 1 Si 146.848 9.77923 1.65142 0
61 1 Si 149.066 1.70587 1.59637 0
62 1 Si 146.719 177.214 1.63524 0
63 1 Si 151.813 6.48771 1.62222 0
64 1 Si 151.9 3.18026 1.64437 0
65 1 Si 159.418 1.20887 1.60882 0
66 1 Si 162.203 2.6066 1.61605 0
67 1 Si 157.06 3.32885 1.6163 0
68 1 Si 161.743 5.76342 1.62272 0
69 1 Si 158.479 6.36236 1.63919 0
70 1 Si 160.091 175.727 1.63546 0
71 1 Si 164.425 0.36028 1.64109 0
72 1 Si 163.269 175.002 1.62125 0
73 1 Si 154.469 1.24765 1.62532 0
74 1 Si 157.49 173.916 1.61609 0
75 1 Si 154.579 175.454 1.6159 0
76 1 Si 167.282 4.71591 1.63462 0
77 1 Si 167.463 1.23191 1.62605 0
78 1 Si 164.67 7.17213 1.63566 0
79 1 Si 178.886 3.75634 1.61639 0
80 1 Si 175.781 4.76925 1.62961 0
81 1 Si 181.105 6.14542 1.62652 0
82 1 Si 176.121 8.01805 1.62643 0
83 1 Si 179.329 8.74933 1.62561 0
84 1 Si 172.861 3.22946 1.63104 0
85 1 Si 172.826 177.299 1.62786 0
86 1 Si 180.264 0.897281 1.65 0
87 1 Si 175.46 174.997 1.62617 0
88 1 Si 178.614 175.807 1.62634 0
89 1 Si 170.378 5.77954 1.6233 0
90 1 Si 169.651 176.205 1.62009 0
91 1 Si 185.422 3.5048 1.63142 0
92 1 Si 184.372 6.49025 1.63061 0
93 1 Si 183.501 0.940097 1.62732 0
94 1 Si 188.549 2.87007 1.61462 0
95 1 Si 191.021 5.00922 1.62983 0
96 1 Si 190.253 8.35281 1.62751 0
97 1 Si 186.748 8.90099 1.62092 0
98 1 Si 188.516 177.244 1.62015 0
99 1 Si 185.482 176.044 1.63154 0
100 1 Si 193.945 3.29023 1.6262 0
101 1 Si 194.108 177.556 1.60651 0
102 1 Si 191.375 175.788 1.61199 0
103 1 Si 196.834 4.90311 1.62447 0
104 1 Si 196.255 8.62455 1.64964 0
105 1 Si 193.047 10.5061 1.63737 0
106 1 Si 199.329 2.10577 1.62683 0
107 1 Si 196.413 175.127 1.62961 0
108 1 Si 199.548 176.097 1.62833 0
109 1 Si 203.286 6.20533 1.62334 0
110 1 Si 202.446 2.98701 1.6275 0
111 1 Si 202.325 9.40906 1.64827 0
112 1 Si 199.064 10.5878 1.63234 0
113 1 Si 0.410035 5.48962 1.61798 0
114 1 Si 1.36704 2.45175 1.61644 0
115 1 Si 204.807 0.560914 1.63483 0
116 1 Si 3.05915 7.1012 1.61692 0
117 1 Si 4.34119 9.95709 1.63735 0
118 1 Si 204.948 11.5128 1.62757 0
119 1 Si 2.21225 12.1989 1.62881 0
120 1 Si 5.5837 5.26306 1.62052 0
121 1 Si 4.55078 2.31306 1.63557 0
122 1 Si 105.405 6.04888 1.61669 0
123 1 Si 107.216 11.4426 1.62664 0
124 1 Si 104.791 9.26472 1.61883 0
125 1 Si 102.288 5.02911 1.59743 0
126 1 Si 103.238 1.87593 1.62749 0
127 1 Si 105.443 177.035 1.62411 0
128 1 Si 117.632 13.5685 1.61734 0
129 1 Si 112.568 14.4034 1.62245 0
130 1 Si 115.466 15.7031 1.6259 0
131 1 Si 124.56 9.85272 1.63135 0
132 1 Si 121.55 10.7707 1.62287 0
133 1 Si 132.2 10.49 1.62219 0
134 1 Si 129.814 12.4957 1.6155 0
135 1 Si 126.709 12.1785 1.62457 0
136 1 Si 135.096 11.9303 1.62491 0
137 1 Si 153.631 9.20631 1.62731 0
138 1 Si 148.771 12.3597 1.61025 0
139 1 Si 151.958 12.0176 1.61951 0
140 1 Si 156.96 9.37418 1.62234 0
141 1 Si 170.506 9.28653 1.62774 0
142 1 Si 164.512 10.6507 1.61818 0
143 1 Si 167.787 11.5828 1.62351 0
144 1 Si 173.753 10.2595 1.64912 0
145 1 Si 181.42 11.257 1.61439 0
146 1 Si 184.904 11.6728 1.63905 0
147 1 Si 8.11559 7.04967 1.61467 0
148 1 Si 7.50511 10.1462 1.60882 0
149 1 Si 122.566 13.8755 1.63307 0
150 1 Si 120.107 15.7371 1.62697 0
151 1 Si 134.516 15.094 1.63813 0
152 1 Si 131.32 15.283 1.59295 0
153 1 Si 142.338 14.7679 1.6267 0
154 1 Si 136.772 17.4065 1.64495 0
155 1 Si 140.026 17.0013 1.63353 0
156 1 Si 148.348 15.5803 1.62677 0
157 1 Si 145.256 16.4297 1.63399 0
158 1 Si 158.392 12.4935 1.62594 0
159 1 Si 161.768 13.032 1.63727 0
160 1 Si 178.743 13.2484 1.6133 0
161 1 Si 175.329 13.1949 1.62888 0
162 1 Si 186.484 14.6546 1.62508 0
163 1 Si 180.514 15.8494 1.62208 0
164 1 Si 183.712 16.3388 1.62612 0
165 1 Si 192.618 14.2682 1.63216 0
166 1 Si 189.481 16.3843 1.64083 0
167 1 Si 198.55 13.932 1.62727 0
168 1 Si 195.699 15.808 1.61989 0
169 1 Si 204.439 14.6272 1.64242 0
170 1 Si 201.385 15.5574 1.63966 0
171 1 Si 1.15393 16.4182 1.62651 0
172 1 Si 3.98628 14.9633 1.61507 0
173 1 Si 105.593 14.8701 1.63819 0
174 1 Si 102.236 15.9706 1.63062 0
175 1 Si 101.599 10.1007 1.62357 0
176 1 Si 100.338 13.1797 1.62895 0
177 1 Si 110.631 16.9566 1.64365 0
178 1 Si 107.413 17.6586 1.6368 0
179 1 Si 125.549 15.0861 1.58092 0
180 1 Si 153.135 15.0293 1.63478 0
181 1 Si 151.008 17.5555 1.62353 0
182 1 Si 156.356 15.2499 1.62969 0
183 1 Si 167.885 14.9381 1.62594 0
184 1 Si 162.293 16.403 1.63214 0
185 1 Si 165.413 17.1579 1.62104 0
186 1 Si 173.55 16.0237 1.62123 0
187 1 Si 170.421 16.9275 1.62878 0
188 1 Si 178.337 18.2225 1.61435 0
189 1 Si 183.414 19.4465 1.63624 0
190 1 Si 180.446 20.4894 1.61988 0
191 1 Si 117.381 18.2783 1.61707 0
192 1 Si 112.374 19.5942 1.60815 0
193 1 Si 115.372 20.5566 1.64564 0
194 1 Si 120.511 19.0175 1.61662 0
195 1 Si 128.406 16.551 1.64704 0
196 1 Si 128.226 19.605 1.62215 0
197 1 Si 135.82 20.4853 1.61207 0
198 1 Si 130.287 21.911 1.61943 0
199 1 Si 133.348 22.5269 1.64783 0
200 1 Si 141.981 19.4621 1.62346 0
201 1 Si 145.133 19.6476 1.60421 0
202 1 Si 157.07 18.4783 1.62837 0
203 1 Si 160.232 19.0574 1.62616 0
204 1 Si 175.197 18.7961 1.62689 0
205 1 Si 188.783 20.0656 1.60439 0
206 1 Si 185.811 21.4245 1.62833 0
207 1 Si 196.285 19.1151 1.63824 0
208 1 Si 189.396 23.5845 1.6355 0
209 1 Si 194.946 22.022 1.61146 0
210 1 Si 192.452 23.8995 1.62498 0
211 1 Si 201.699 18.6727 1.63322 0
212 1 Si 199.183 20.4716 1.63266 0
213 1 Si 1.2746 19.6031 1.62719 0
214 1 Si 204.28 20.4932 1.62934 0
215 1 Si 3.68259 21.777 1.64673 0
216 1 Si 6.88417 16.5916 1.63112 0
217 1 Si 6.51346 19.9379 1.62855 0
218 1 Si 106.322 20.9039 1.60121 0
219 1 Si 111.21 22.4705 1.6206 0
220 1 Si 108.293 23.4402 1.61936 0
221 1 Si 125.713 21.4626 1.60066 0
222 1 Si 122.522 21.7433 1.63781 0
223 1 Si 138.042 22.7163 1.62791 0
224 1 Si 141.106 22.4045 1.62819 0
225 1 Si 151.777 20.9192 1.64851 0
226 1 Si 146.208 22.7172 1.65922 0
227 1 Si 149.442 23.5806 1.63849 0
228 1 Si 155.18 21.2202 1.61566 0
229 1 Si 137.216 43.8975 1.63603 0
230 1 Si 135.122 41.5885 1.61831 0
231 1 Si 140.28 42.9033 1.63404 0
232 1 Si 136.326 38.7429 1.5962 0
233 1 Si 139.564 39.7071 1.63055 0
234 1 Si 134.821 46.0436 1.63583 0
235 1 Si 131.993 42.0041 1.62062 0
236 1 Si 131.691 45.1133 1.62439 0
237 1 Si 142.869 44.9136 1.64185 0
238 1 Si 135.681 49.0594 1.62755 0
239 1 Si 141.481 47.8179 1.62778 0
240 1 Si 138.805 49.5642 1.63478 0
241 1 Si 166.02 20.3823 1.60832 0
242 1 Si 169.212 19.992 1.62881 0
243 1 Si 104.122 23.4317 1.64013 0
244 1 Si 100.541 19.3031 1.62654 0
245 1 Si 101.015 22.8479 1.62827 0
246 1 Si 113.593 24.3886 1.61707 0
247 1 Si 116.549 23.4243 1.60468 0
248 1 Si 127.806 23.8885 1.62083 0
249 1 Si 137.079 25.6449 1.6029 0
250 1 Si 133.953 25.6721 1.59827 0
251 1 Si 143.452 24.5425 1.62496 0
252 1 Si 160.692 22.369 1.61596 0
253 1 Si 157.476 23.7167 1.62985 0
254 1 Si 164.076 23.1508 1.62559 0
255 1 Si 173.909 21.7525 1.6452 0
256 1 Si 170.828 22.7142 1.62854 0
257 1 Si 179.214 23.3253 1.63949 0
258 1 Si 176.126 23.9704 1.63638 0
259 1 Si 184.644 24.4165 1.62889 0
260 1 Si 181.616 25.2811 1.62665 0
261 1 Si 185.682 27.4685 1.62456 0
262 1 Si 188.839 27.1945 1.6365 0
263 1 Si 200.442 23.369 1.63629 0
264 1 Si 196.141 24.9652 1.61768 0
265 1 Si 199.037 26.1507 1.62716 0
266 1 Si 203.563 23.5087 1.64051 0
267 1 Si 205.543 25.9469 1.63352 0
268 1 Si 2.72055 25.0881 1.61525 0
269 1 Si 107.556 26.5502 1.62921 0
270 1 Si 104.445 26.7637 1.61199 0
271 1 Si 114.114 27.3507 1.63533 0
272 1 Si 109.119 29.2929 1.62257 0
273 1 Si 112.172 29.6656 1.62709 0
274 1 Si 122.052 25.1261 1.6141 0
275 1 Si 118.893 25.5019 1.64542 0
276 1 Si 127.379 27.1418 1.61298 0
277 1 Si 124.094 27.9388 1.62016 0
278 1 Si 142.148 27.5905 1.64219 0
279 1 Si 138.848 28.2433 1.60999 0
280 1 Si 149.986 27.0351 1.65389 0
281 1 Si 156.395 26.9744 1.63036 0
282 1 Si 153.169 28.1787 1.62353 0
283 1 Si 166.003 26.0503 1.6277 0
284 1 Si 169.42 25.6847 1.61491 0
285 1 Si 193.645 26.8336 1.63001 0
286 1 Si 200.666 28.9279 1.62792 0
287 1 Si 203.996 28.7731 1.63364 0
288 1 Si 117.145 28.0605 1.63235 0
289 1 Si 133.132 28.7528 1.63305 0
290 1 Si 129.887 29.5188 1.61371 0
291 1 Si 147.622 29.6408 1.61696 0
292 1 Si 144.3 30.0146 1.62493 0
293 1 Si 158.467 29.6182 1.61524 0
294 1 Si 164.766 29.2173 1.63469 0
295 1 Si 161.671 30.5246 1.62013 0
296 1 Si 175.178 26.929 1.62291 0
297 1 Si 172.025 27.6704 1.63702 0
298 1 Si 180.827 28.3461 1.62612 0
299 1 Si 177.688 28.9274 1.60681 0
300 1 Si 11.2255 6.89947 1.6218 0
301 1 Si 12.221 3.93477 1.63476 0
302 1 Si 9.8477 1.44814 1.65121 0
303 1 Si 6.67107 177.617 1.63293 0
304 1 Si 183.566 29.9962 1.62304 0
305 1 Si 12.729 9.73611 1.61684 0
306 1 Si 10.2242 11.8787 1.65159 0
307 1 Si 15.5128 4.40349 1.59688 0
308 1 Si 17.2918 1.74805 1.6037 0
309 1 Si 11.9352 176.758 1.62568 0
310 1 Si 15.1699 176.982 1.62254 0
311 1 Si 17.7646 6.78636 1.62574 0
312 1 Si 16.0213 9.60545 1.6299 0
313 1 Si 20.9842 5.77766 1.62858 0
314 1 Si 20.5015 2.47492 1.62969 0
315 1 Si 193.361 30.0407 1.61995 0
316 1 Si 190.121 30.5056 1.60418 0
317 1 Si 23.8991 7.66016 1.6569 0
318 1 Si 23.5315 11.0558 1.64266 0
319 1 Si 17.3909 12.4974 1.63014 0
320 1 Si 20.6173 12.3617 1.62427 0
321 1 Si 26.9991 6.1782 1.61941 0
322 1 Si 27.8722 2.94435 1.62989 0
323 1 Si 22.7414 0.0831094 1.62318 0
324 1 Si 26.0611 0.212975 1.62501 0
325 1 Si 199.055 31.7833 1.63957 0
326 1 Si 195.769 32.3772 1.63275 0
327 1 Si 32.4863 5.02171 1.61799 0
328 1 Si 35.7666 5.00231 1.62895 0
329 1 Si 30.1001 7.32821 1.63373 0
330 1 Si 36.295 8.19414 1.63322 0
331 1 Si 31.1367 10.3927 1.62523 0
332 1 Si 34.3275 10.7527 1.61057 0
333 1 Si 31.0936 2.14229 1.63583 0
334 1 Si 37.9577 2.46283 1.65081 0
335 1 Si 33.1454 177.122 1.62156 0
336 1 Si 36.4011 177.292 1.64752 0
337 1 Si 43.231 4.62679 1.62518 0
338 1 Si 42.1903 7.54344 1.6368 0
339 1 Si 41.2824 2.07655 1.62681 0
340 1 Si 39.3246 8.73986 1.61615 0
341 1 Si 108.099 32.2472 1.59043 0
342 1 Si 104.992 32.6334 1.59222 0
343 1 Si 103.249 29.8572 1.63772 0
344 1 Si 46.4169 4.78061 1.63567 0
345 1 Si 48.1814 7.43748 1.6328 0
346 1 Si 43.6635 10.3032 1.60161 0
347 1 Si 48.5969 10.6414 1.62746 0
348 1 Si 46.0512 12.3472 1.63351 0
349 1 Si 47.7572 1.93044 1.62933 0
350 1 Si 43.113 176.925 1.6319 0
351 1 Si 46.3897 176.755 1.61552 0
352 1 Si 117.364 31.1352 1.64167 0
353 1 Si 114.285 31.9775 1.62892 0
354 1 Si 52.4331 4.31187 1.63859 0
355 1 Si 51.2429 7.1571 1.63682 0
356 1 Si 50.8731 1.63797 1.62334 0
357 1 Si 123.396 31.3977 1.63317 0
358 1 Si 120.189 32.6278 1.61522 0
359 1 Si 55.4819 4.3345 1.62086 0
360 1 Si 56.8114 7.1634 1.63589 0
361 1 Si 52.7225 9.91106 1.6286 0
362 1 Si 55.7796 10.1053 1.63538 0
363 1 Si 57.1845 1.673 1.61473 0
364 1 Si 52.3575 176.514 1.61573 0
365 1 Si 55.6787 176.425 1.64295 0
366 1 Si 59.8321 6.58549 1.62157 0
367 1 Si 59.8959 3.3741 1.63493 0
368 1 Si 136.172 30.2437 1.62723 0
369 1 Si 64.5504 5.29947 1.63496 0
370 1 Si 62.8376 2.34467 1.63399 0
371 1 Si 61.4334 9.3115 1.64368 0
372 1 Si 64.468 8.65974 1.63975 0
373 1 Si 67.6498 4.93316 1.63089 0
374 1 Si 67.9785 1.61674 1.64231 0
375 1 Si 63.0129 176.597 1.61835 0
376 1 Si 66.2783 176.425 1.62978 0
377 1 Si 80.5417 3.79969 1.61588 0
378 1 Si 77.5413 4.58301 1.63405 0
379 1 Si 81.6421 6.77588 1.63272 0
380 1 Si 77.0181 7.70208 1.62056 0
381 1 Si 79.7324 9.27379 1.61696 0
382 1 Si 75.5759 2.20621 1.61429 0
383 1 Si 75.8227 176.678 1.61602 0
384 1 Si 82.3774 1.24569 1.64864 0
385 1 Si 78.1269 174.405 1.62786 0
386 1 Si 81.2769 175.685 1.65069 0
387 1 Si 72.8564 3.85515 1.60949 0
388 1 Si 71.0812 1.27295 1.63859 0
389 1 Si 72.6913 176.17 1.62482 0
390 1 Si 153.274 31.4815 1.61388 0
391 1 Si 148.209 32.8933 1.61923 0
392 1 Si 151.162 34.0867 1.62734 0
393 1 Si 84.7137 6.54753 1.62791 0
394 1 Si 84.9583 3.32706 1.6143 0
395 1 Si 156.407 32.1711 1.6156 0
396 1 Si 90.7024 5.53217 1.64182 0
397 1 Si 88.1645 3.44448 1.62607 0
398 1 Si 86.566 9.14008 1.63652 0
399 1 Si 89.7736 8.58596 1.61937 0
400 1 Si 88.5635 0.390982 1.63149 0
401 1 Si 91.7741 0.501498 1.63759 0
402 1 Si 88.9118 173.994 1.60909 0
403 1 Si 86.429 175.731 1.63127 0
404 1 Si 91.7436 175.131 1.63154 0
405 1 Si 94.0044 5.27623 1.62101 0
406 1 Si 94.4898 2.14899 1.63133 0
407 1 Si 99.8108 7.32319 1.62707 0
408 1 Si 100.469 0.615367 1.64137 0
409 1 Si 97.3936 0.961776 1.60528 0
410 1 Si 101.071 175.199 1.58969 0
411 1 Si 98.0178 175.568 1.59784 0
412 1 Si 96.4194 7.60025 1.63231 0
413 1 Si 166.69 31.9073 1.61084 0
414 1 Si 161.901 33.8434 1.62423 0
415 1 Si 164.961 34.646 1.62432 0
416 1 Si 172.26 30.7899 1.62365 0
417 1 Si 169.79 32.7697 1.63525 0
418 1 Si 25.0246 14.1009 1.61837 0
419 1 Si 30.1318 13.4643 1.58844 0
420 1 Si 27.8422 15.675 1.622 0
421 1 Si 0.00386461 31.3372 1.62999 0
422 1 Si 3.26505 31.4011 1.626 0
423 1 Si 4.0273 28.1501 1.62699 0
424 1 Si 40.782 11.4098 1.60363 0
425 1 Si 112.995 34.8139 1.64517 0
426 1 Si 109.797 34.8752 1.60233 0
427 1 Si 51.1718 12.6146 1.6062 0
428 1 Si 129.503 32.8933 1.61123 0
429 1 Si 125.914 33.8252 1.6301 0
430 1 Si 57.3474 12.8432 1.63578 0
431 1 Si 60.4332 12.3463 1.63552 0
432 1 Si 72.3923 7.01347 1.62731 0
433 1 Si 69.3852 7.82396 1.63623 0
434 1 Si 136.529 33.4929 1.63115 0
435 1 Si 143.063 33.071 1.62047 0
436 1 Si 140.143 34.6021 1.62826 0
437 1 Si 74.4483 9.48822 1.61456 0
438 1 Si 132.963 34.4396 1.62422 0
439 1 Si 79.6403 12.4884 1.62455 0
440 1 Si 85.3205 12.1555 1.62438 0
441 1 Si 82.5098 13.8282 1.61746 0
442 1 Si 145.701 34.9067 1.61106 0
443 1 Si 156.709 35.3779 1.61556 0
444 1 Si 159.763 36.3481 1.61471 0
445 1 Si 95.1633 10.6936 1.63592 0
446 1 Si 91.8972 11.0333 1.64018 0
447 1 Si 97.0323 13.4534 1.64477 0
448 1 Si 175.432 31.1114 1.63588 0
449 1 Si 183.609 33.2991 1.61517 0
450 1 Si 176.322 33.9951 1.59461 0
451 1 Si 9.99744 15.2026 1.61494 0
452 1 Si 15.8652 15.5045 1.63881 0
453 1 Si 12.8575 17.0501 1.62213 0
454 1 Si 189.331 33.903 1.63313 0
455 1 Si 186.25 35.1646 1.62206 0
456 1 Si 20.8335 15.4491 1.62891 0
457 1 Si 18.4147 17.3809 1.6336 0
458 1 Si 201.201 34.218 1.63411 0
459 1 Si 204.389 34.0452 1.638 0
460 1 Si 23.482 16.9631 1.6363 0
461 1 Si 194.998 35.6297 1.62792 0
462 1 Si 191.722 36.3353 1.63925 0
463 1 Si 34.8955 13.9513 1.62707 0
464 1 Si 32.3652 15.8124 1.61272 0
465 1 Si 118.75 35.6005 1.61963 0
466 1 Si 115.595 36.6908 1.61816 0
467 1 Si 52.8201 15.4056 1.64035 0
468 1 Si 56.0661 15.7376 1.63077 0
469 1 Si 124.481 37.036 1.63512 0
470 1 Si 121.051 37.8085 1.62584 0
471 1 Si 66.1389 11.5085 1.64301 0
472 1 Si 69.2632 11.1861 1.63301 0
473 1 Si 133.051 37.682 1.63747 0
474 1 Si 141.945 37.5412 1.62099 0
475 1 Si 74.182 12.7565 1.63255 0
476 1 Si 76.9613 14.4405 1.6271 0
477 1 Si 154.608 37.9329 1.62993 0
478 1 Si 151.323 37.4899 1.61683 0
479 1 Si 87.3783 14.5804 1.62256 0
480 1 Si 90.5433 14.0016 1.63536 0
481 1 Si 171.022 35.7246 1.62979 0
482 1 Si 166.109 37.6489 1.62686 0
483 1 Si 169.264 38.288 1.62259 0
484 1 Si 174.11 36.1638 1.59847 0
485 1 Si 200.694 37.4072 1.63461 0
486 1 Si 197.445 37.9809 1.63194 0
487 1 Si 40.3601 14.3775 1.62303 0
488 1 Si 37.523 15.6749 1.63566 0
489 1 Si 0.0115115 36.822 1.64011 0
490 1 Si 3.26824 37.183 1.63567 0
491 1 Si 4.99939 34.3269 1.65214 0
492 1 Si 43.0692 15.9303 1.62933 0
493 1 Si 46.1621 15.5417 1.63562 0
494 1 Si 106.646 35.4302 1.65174 0
495 1 Si 115.079 39.9066 1.62828 0
496 1 Si 107.815 40.6799 1.61298 0
497 1 Si 105.155 38.2079 1.61925 0
498 1 Si 111.698 41.601 1.63401 0
499 1 Si 62.1088 15.0093 1.62615 0
500 1 Si 65.1988 14.5889 1.63125 0
501 1 Si 130.056 39.4801 1.62466 0
502 1 Si 126.44 39.7732 1.62433 0
503 1 Si 71.1273 13.9894 1.62921 0
504 1 Si 145.413 38.1074 1.61443 0
505 1 Si 82.5131 17.1129 1.62268 0
506 1 Si 85.7275 17.3855 1.62338 0
507 1 Si 92.4038 16.6141 1.63104 0
508 1 Si 95.6537 16.4841 1.63017 0
509 1 Si 156.412 40.6902 1.62043 0
510 1 Si 159.514 39.6309 1.62734 0
511 1 Si 185.359 38.3941 1.63663 0
512 1 Si 12.4952 20.4819 1.63058 0
513 1 Si 9.32489 21.569 1.62091 0
514 1 Si 19.5966 20.3461 1.63339 0
515 1 Si 14.7971 23.0317 1.62572 0
516 1 Si 18.0896 23.2013 1.64022 0
517 1 Si 203.652 39.032 1.62234 0
518 1 Si 22.8308 20.0855 1.64591 0
519 1 Si 28.955 18.8281 1.60848 0
520 1 Si 32.1619 19.0356 1.62691 0
521 1 Si 190.972 39.5981 1.63773 0
522 1 Si 187.765 40.6293 1.6262 0
523 1 Si 38.6866 18.54 1.5907 0
524 1 Si 41.8106 18.6798 1.61934 0
525 1 Si 118.61 40.2426 1.62019 0
526 1 Si 120.431 42.9535 1.6281 0
527 1 Si 124.05 42.4435 1.63353 0
528 1 Si 48.1379 18.0921 1.63558 0
529 1 Si 51.3635 18.2187 1.62428 0
530 1 Si 57.9627 18.4146 1.64406 0
531 1 Si 61.1993 18.0717 1.61778 0
532 1 Si 66.6005 17.4832 1.60529 0
533 1 Si 69.8861 17.2289 1.63721 0
534 1 Si 148.593 39.7722 1.6298 0
535 1 Si 76.998 17.7406 1.61928 0
536 1 Si 79.9173 19.2064 1.60927 0
537 1 Si 149.188 43.3397 1.6433 0
538 1 Si 155.818 43.9543 1.62371 0
539 1 Si 152.73 45.2136 1.61774 0
540 1 Si 164.898 40.5853 1.63164 0
541 1 Si 161.916 41.8283 1.62722 0
542 1 Si 87.6233 19.9244 1.62329 0
543 1 Si 90.7937 19.3613 1.62744 0
544 1 Si 170.414 41.2738 1.62229 0
545 1 Si 167.459 42.5455 1.62473 0
546 1 Si 97.2276 19.435 1.62695 0
547 1 Si 196.768 41.171 1.63276 0
548 1 Si 193.475 41.8317 1.63158 0
549 1 Si 24.9281 22.5228 1.61853 0
550 1 Si 28.0621 21.9285 1.63987 0
551 1 Si 205.249 42.0356 1.6263 0
552 1 Si 199.263 43.4047 1.62272 0
553 1 Si 202.591 43.9818 1.63032 0
554 1 Si 33.9765 21.7272 1.61943 0
555 1 Si 39.3443 21.5669 1.63529 0
556 1 Si 36.7914 23.1148 1.61725 0
557 1 Si 105.613 43.2 1.60124 0
558 1 Si 102.294 43.1586 1.63557 0
559 1 Si 101.537 37.6826 1.60046 0
560 1 Si 100.154 40.6737 1.61631 0
561 1 Si 112.078 45.0024 1.61745 0
562 1 Si 106.434 46.4139 1.62056 0
563 1 Si 109.614 47.32 1.61844 0
564 1 Si 43.6754 21.1561 1.6419 0
565 1 Si 46.7796 20.9923 1.62572 0
566 1 Si 2.86015 42.9092 1.61899 0
567 1 Si 4.81502 40.1521 1.64005 0
568 1 Si 53.1519 20.9719 1.627 0
569 1 Si 56.4639 21.2831 1.63747 0
570 1 Si 118.327 45.7505 1.61657 0
571 1 Si 114.986 46.6489 1.63443 0
572 1 Si 64.0903 19.6467 1.63771 0
573 1 Si 125.556 45.3296 1.62632 0
574 1 Si 128.698 46.3257 1.62392 0
575 1 Si 146.254 45.1913 1.61768 0
576 1 Si 71.4373 20.2073 1.62509 0
577 1 Si 74.6808 20.041 1.61599 0
578 1 Si 79.0777 22.4226 1.63108 0
579 1 Si 87.1018 23.0702 1.62886 0
580 1 Si 84.4695 24.9154 1.61103 0
581 1 Si 81.1893 24.8655 1.6309 0
582 1 Si 161.557 45.15 1.63038 0
583 1 Si 158.41 46.1391 1.62043 0
584 1 Si 92.3209 22.1261 1.65073 0
585 1 Si 95.5319 22.3763 1.63951 0
586 1 Si 186.965 43.8526 1.64027 0
587 1 Si 8.65711 24.6771 1.6206 0
588 1 Si 7.01046 27.3457 1.64054 0
589 1 Si 192.663 45.0076 1.64578 0
590 1 Si 189.551 45.9468 1.63885 0
591 1 Si 13.9987 26.2196 1.62255 0
592 1 Si 10.9803 26.7285 1.60525 0
593 1 Si 19.6922 26.132 1.60295 0
594 1 Si 25.1236 25.7514 1.63231 0
595 1 Si 22.5941 27.5969 1.62713 0
596 1 Si 123.523 47.8726 1.62377 0
597 1 Si 120.333 48.3609 1.62593 0
598 1 Si 29.7421 24.7182 1.59516 0
599 1 Si 34.5935 24.8781 1.63547 0
600 1 Si 32.247 26.7905 1.6298 0
601 1 Si 41.7838 23.536 1.62791 0
602 1 Si 146.716 48.4493 1.63449 0
603 1 Si 154.37 48.3463 1.61791 0
604 1 Si 149.255 50.4271 1.61732 0
605 1 Si 152.487 50.9111 1.63279 0
606 1 Si 48.0694 23.8751 1.63505 0
607 1 Si 51.312 23.6033 1.6419 0
608 1 Si 64.4032 22.913 1.62106 0
609 1 Si 58.2427 24.1052 1.65662 0
610 1 Si 61.6019 24.6949 1.61921 0
611 1 Si 167.155 45.68 1.62413 0
612 1 Si 164.28 47.1329 1.61186 0
613 1 Si 67.2918 24.7109 1.62401 0
614 1 Si 70.5342 23.5097 1.6265 0
615 1 Si 75.8228 23.072 1.60654 0
616 1 Si 169.808 47.5013 1.62532 0
617 1 Si 90.0682 24.3896 1.63046 0
618 1 Si 96.242 25.6563 1.62101 0
619 1 Si 99.4489 26.1032 1.63048 0
620 1 Si 198.054 46.3647 1.63563 0
621 1 Si 194.994 47.3147 1.63198 0
622 1 Si 15.1932 29.2516 1.63665 0
623 1 Si 18.3238 29.0613 1.62916 0
624 1 Si 203.355 47.1163 1.61683 0
625 1 Si 200.441 48.4292 1.62947 0
626 1 Si 27.9548 27.3218 1.59224 0
627 1 Si 103.694 48.246 1.61318 0
628 1 Si 101.155 46.2059 1.61047 0
629 1 Si 114.085 49.8626 1.61808 0
630 1 Si 110.831 50.4231 1.61803 0
631 1 Si 37.4732 26.1979 1.58887 0
632 1 Si 128.516 49.5009 1.61815 0
633 1 Si 125.479 50.3809 1.62476 0
634 1 Si 42.5974 26.5494 1.62405 0
635 1 Si 45.8594 26.3505 1.63451 0
636 1 Si 133.728 51.6018 1.60987 0
637 1 Si 130.623 51.8349 1.63717 0
638 1 Si 52.8969 26.352 1.64989 0
639 1 Si 56.1794 26.653 1.64984 0
640 1 Si 143.873 49.8468 1.62047 0
641 1 Si 62.9816 27.6985 1.61801 0
642 1 Si 66.3467 27.9582 1.62103 0
643 1 Si 157.719 49.3595 1.61797 0
644 1 Si 73.4035 25.4017 1.63732 0
645 1 Si 165.558 50.2199 1.62847 0
646 1 Si 160.156 52.0986 1.63271 0
647 1 Si 163.547 52.7612 1.62927 0
648 1 Si 90.8202 27.5006 1.6344 0
649 1 Si 94.0206 28.2446 1.62927 0
650 1 Si 189.119 49.1705 1.63647 0
651 1 Si 186.074 50.1384 1.64398 0
652 1 Si 0.0188702 48.9131 1.62987 0
653 1 Si 3.258 48.772 1.61808 0
654 1 Si 5.01043 45.851 1.63248 0
655 1 Si 9.36468 29.3718 1.59772 0
656 1 Si 119.382 51.5082 1.63646 0
657 1 Si 116.239 52.3215 1.62962 0
658 1 Si 10.4951 32.2763 1.63258 0
659 1 Si 13.7556 32.2214 1.63194 0
660 1 Si 194.42 50.5527 1.63873 0
661 1 Si 191.371 51.5353 1.63335 0
662 1 Si 19.9104 31.8504 1.63418 0
663 1 Si 22.9313 30.8508 1.62655 0
664 1 Si 124.689 53.4391 1.63035 0
665 1 Si 121.531 53.9714 1.63642 0
666 1 Si 33.0917 29.9139 1.61756 0
667 1 Si 29.8298 29.9737 1.63894 0
668 1 Si 139.159 52.7089 1.60917 0
669 1 Si 134.283 54.7816 1.6238 0
670 1 Si 137.336 55.3437 1.64185 0
671 1 Si 39.8706 28.3011 1.64379 0
672 1 Si 142.311 52.5644 1.62529 0
673 1 Si 50.5454 28.5706 1.61518 0
674 1 Si 47.3155 29.1325 1.62167 0
675 1 Si 148.703 53.5069 1.62598 0
676 1 Si 143.427 55.3988 1.63797 0
677 1 Si 146.502 55.6516 1.62122 0
678 1 Si 57.5245 29.6027 1.64089 0
679 1 Si 60.8265 30.1578 1.6423 0
680 1 Si 153.941 53.9038 1.58968 0
681 1 Si 151.213 55.3158 1.61938 0
682 1 Si 168.899 50.6172 1.62719 0
683 1 Si 74.0706 28.8558 1.6313 0
684 1 Si 68.0209 31.066 1.63473 0
685 1 Si 71.8787 31.5872 1.62257 0
686 1 Si 85.38 28.0039 1.61776 0
687 1 Si 79.9764 27.8677 1.60891 0
688 1 Si 82.6665 29.5709 1.6182 0
689 1 Si 174.392 51.7155 1.63062 0
690 1 Si 171.277 53.0206 1.64264 0
691 1 Si 88.2438 29.4979 1.63852 0
692 1 Si 199.57 51.4687 1.64188 0
693 1 Si 196.684 52.8841 1.62348 0
694 1 Si 100.009 29.5886 1.62436 0
695 1 Si 204.966 51.8793 1.6368 0
696 1 Si 202.131 53.2173 1.63793 0
697 1 Si 109.838 53.6349 1.62061 0
698 1 Si 106.978 55.3369 1.63604 0
699 1 Si 103.837 54.3135 1.63267 0
700 1 Si 102.464 51.281 1.62572 0
701 1 Si 115.426 55.5352 1.61872 0
702 1 Si 112.196 55.9549 1.6229 0
703 1 Si 35.6196 32.158 1.6574 0
704 1 Si 39.2019 31.5025 1.63693 0
705 1 Si 51.8275 31.4222 1.61743 0
706 1 Si 45.839 32.0586 1.62402 0
707 1 Si 49.0243 33.1646 1.62024 0
708 1 Si 129.909 54.9502 1.62608 0
709 1 Si 126.908 55.7765 1.63149 0
710 1 Si 55.1018 31.8104 1.63919 0
711 1 Si 132.181 57.2054 1.62837 0
712 1 Si 77.3663 29.7653 1.63267 0
713 1 Si 159.8 55.3649 1.60381 0
714 1 Si 154.874 57.1101 1.62922 0
715 1 Si 157.873 57.9489 1.62137 0
716 1 Si 94.5112 31.5619 1.63308 0
717 1 Si 88.3728 32.8085 1.63584 0
718 1 Si 91.7252 33.6926 1.63695 0
719 1 Si 97.8466 32.3518 1.62594 0
720 1 Si 179.774 52.61 1.6397 0
721 1 Si 176.81 53.9491 1.63465 0
722 1 Si 8.33096 34.6888 1.63835 0
723 1 Si 185.305 53.1799 1.62384 0
724 1 Si 182.366 54.3963 1.62177 0
725 1 Si 190.674 54.7334 1.62591 0
726 1 Si 187.527 55.4104 1.6219 0
727 1 Si 15.314 35.1588 1.64718 0
728 1 Si 18.6831 34.9085 1.63555 0
729 1 Si 196.198 56.2149 1.6274 0
730 1 Si 192.866 57.2166 1.61865 0
731 1 Si 1.14325 54.1329 1.60812 0
732 1 Si 3.66747 52.0689 1.63675 0
733 1 Si 25.232 33.1075 1.62599 0
734 1 Si 28.462 32.803 1.61346 0
735 1 Si 120.892 57.1231 1.62871 0
736 1 Si 117.704 57.9527 1.62878 0
737 1 Si 126.589 58.9751 1.63315 0
738 1 Si 123.39 59.242 1.6332 0
739 1 Si 62.1384 33.1615 1.64155 0
740 1 Si 56.2421 34.7873 1.62821 0
741 1 Si 59.5429 35.3124 1.63388 0
742 1 Si 141.439 57.7784 1.63762 0
743 1 Si 138.338 58.3574 1.62876 0
744 1 Si 65.5682 33.6094 1.62542 0
745 1 Si 147.796 58.4955 1.62218 0
746 1 Si 142.954 60.4097 1.60032 0
747 1 Si 146.014 60.9798 1.63123 0
748 1 Si 82.4144 32.6982 1.61388 0
749 1 Si 79.102 32.6324 1.62804 0
750 1 Si 150.849 58.3948 1.62066 0
751 1 Si 165.017 55.8688 1.6248 0
752 1 Si 162.264 57.4454 1.61307 0
753 1 Si 85.2327 34.4414 1.62941 0
754 1 Si 170.877 56.4595 1.62648 0
755 1 Si 167.798 57.8835 1.64669 0
756 1 Si 98.556 35.7403 1.63252 0
757 1 Si 176.607 57.2583 1.63516 0
758 1 Si 173.569 58.6019 1.63834 0
759 1 Si 9.96868 37.5116 1.62537 0
760 1 Si 13.2573 37.8796 1.61987 0
761 1 Si 21.1229 37.2381 1.63743 0
762 1 Si 24.3968 36.2196 1.60916 0
763 1 Si 202.039 56.372 1.63567 0
764 1 Si 199.129 57.9762 1.63241 0
765 1 Si 30.4535 35.3651 1.6048 0
766 1 Si 33.9397 35.1248 1.63896 0
767 1 Si 205.268 56.7895 1.64239 0
768 1 Si 42.4252 33.0849 1.63526 0
769 1 Si 110.929 58.8719 1.62116 0
770 1 Si 107.743 58.5369 1.60269 0
771 1 Si 50.3511 36.0453 1.62539 0
772 1 Si 42.3174 36.3507 1.63903 0
773 1 Si 45.0272 38.3497 1.6176 0
774 1 Si 48.3569 38.5296 1.62642 0
775 1 Si 117.291 61.1862 1.63043 0
776 1 Si 111.908 61.9081 1.61961 0
777 1 Si 114.805 63.2497 1.62843 0
778 1 Si 53.569 36.6584 1.62674 0
779 1 Si 132.022 60.494 1.64126 0
780 1 Si 128.89 61.3836 1.62475 0
781 1 Si 137.511 61.4838 1.64685 0
782 1 Si 134.454 62.8236 1.62631 0
783 1 Si 73.9384 34.7309 1.62847 0
784 1 Si 66.1851 36.8822 1.63259 0
785 1 Si 72.5069 37.773 1.63576 0
786 1 Si 69.0997 38.5239 1.61658 0
787 1 Si 77.5357 35.4187 1.62797 0
788 1 Si 153.404 60.0766 1.62646 0
789 1 Si 92.3867 36.9717 1.6449 0
790 1 Si 83.8903 37.5747 1.6242 0
791 1 Si 89.9037 39.365 1.62263 0
792 1 Si 86.4409 39.8923 1.63128 0
793 1 Si 95.742 37.6793 1.61473 0
794 1 Si 161.857 60.6992 1.64137 0
795 1 Si 158.623 61.1942 1.62838 0
796 1 Si 182.334 57.5863 1.62413 0
797 1 Si 179.413 59.1115 1.62963 0
798 1 Si 185.58 57.9855 1.62393 0
799 1 Si 8.1873 40.2478 1.64168 0
800 1 Si 13.5983 41.254 1.62623 0
801 1 Si 20.5481 40.5563 1.62538 0
802 1 Si 16.9184 42.5136 1.63897 0
803 1 Si 0.413783 59.7631 1.61679 0
804 1 Si 3.87571 59.6467 1.64976 0
805 1 Si 6.43126 53.6177 1.63221 0
806 1 Si 5.81466 56.8948 1.61576 0
807 1 Si 27.6236 37.2213 1.63457 0
808 1 Si 190.944 60.1106 1.63441 0
809 1 Si 187.458 60.55 1.62973 0
810 1 Si 122.955 62.3352 1.63781 0
811 1 Si 119.895 62.9308 1.635 0
812 1 Si 39.3915 37.8807 1.60335 0
813 1 Si 36.0265 37.7322 1.6272 0
814 1 Si 40.613 40.8933 1.61731 0
815 1 Si 43.9132 41.3834 1.63193 0
816 1 Si 140.604 62.4668 1.56327 0
817 1 Si 60.1939 38.4663 1.62804 0
818 1 Si 54.1091 39.7932 1.62147 0
819 1 Si 57.4423 40.4448 1.63371 0
820 1 Si 63.4933 38.8997 1.62196 0
821 1 Si 147.159 63.8767 1.60249 0
822 1 Si 143.816 63.5778 1.57341 0
823 1 Si 80.1581 37.8888 1.622 0
824 1 Si 74.8482 40.2624 1.62511 0
825 1 Si 78.2821 40.6632 1.62793 0
826 1 Si 153.31 63.3344 1.62965 0
827 1 Si 150.314 65.0311 1.65971 0
828 1 Si 167.595 61.3516 1.62935 0
829 1 Si 164.49 62.8085 1.62891 0
830 1 Si 173.482 62.002 1.63988 0
831 1 Si 170.404 63.3697 1.637 0
832 1 Si 179.233 62.4202 1.62161 0
833 1 Si 176.281 64.0082 1.63205 0
834 1 Si 199.513 61.2771 1.62593 0
835 1 Si 192.625 62.9671 1.63275 0
836 1 Si 196.127 63.3824 1.62557 0
837 1 Si 10.3444 42.766 1.62272 0
838 1 Si 203.224 61.408 1.62454 0
839 1 Si 27.7622 40.4086 1.63395 0
840 1 Si 24.1491 41.3233 1.63907 0
841 1 Si 106.804 61.6454 1.64195 0
842 1 Si 103.693 62.4431 1.62863 0
843 1 Si 101.582 56.6925 1.63432 0
844 1 Si 101.581 59.9179 1.62139 0
845 1 Si 109.292 63.7569 1.60101 0
846 1 Si 31.2743 41.4942 1.6278 0
847 1 Si 34.7584 40.7855 1.61779 0
848 1 Si 128.255 64.6239 1.61054 0
849 1 Si 125.067 64.7255 1.63555 0
850 1 Si 50.8671 40.7159 1.63301 0
851 1 Si 133.645 66.1513 1.60974 0
852 1 Si 130.366 67.2326 1.62498 0
853 1 Si 156.617 64.0244 1.62612 0
854 1 Si 67.7974 41.6148 1.62089 0
855 1 Si 64.4409 41.9738 1.61907 0
856 1 Si 73.4281 43.1985 1.6112 0
857 1 Si 70.0665 43.9756 1.62463 0
858 1 Si 164.164 66.2277 1.6367 0
859 1 Si 157.689 67.2839 1.62955 0