ITEM: TIMESTEP
1419
ITEM: NUMBER OF ATOMS
15504
ITEM: BOX BOUNDS pp pp pp
0.0000000000000000e+00 2.0418686075908047e+02
0.0000000000000000e+00 1.7684067525432607e+02
-1.0000000000000000e+02 1.0000000000000000e+02
ITEM: ATOMS id type element x y z v_uncoordination
1 1 Si 119.487 52.2022 1.62922 0
2 1 Si 120.749 49.349 1.62802 0
3 1 Si 116.325 51.7647 1.6245 0
4 1 Si 118.121 47.4082 1.62352 0
5 1 Si 115.214 48.7931 1.6467 0
6 1 Si 121.126 54.9013 1.62601 0
7 1 Si 123.964 48.9954 1.61561 0
8 1 Si 126.839 50.7507 1.62463 0
9 1 Si 127.334 54.0739 1.63042 0
10 1 Si 124.312 55.7061 1.61231 0
11 1 Si 114.274 54.0938 1.63487 0
12 1 Si 115.673 56.9349 1.63704 0
13 1 Si 118.868 57.1961 1.62212 0
14 1 Si 129.371 35.9352 1.63832 0
15 1 Si 126.571 37.3753 1.63073 0
16 1 Si 125.939 32.445 1.61234 0
17 1 Si 128.975 32.8538 1.61376 0
18 1 Si 124.506 35.0902 1.61727 0
19 1 Si 131.976 37.6258 1.61526 0
20 1 Si 131.107 40.8691 1.62137 0
21 1 Si 134.627 35.6154 1.617 0
22 1 Si 137.176 37.6611 1.62537 0
23 1 Si 136.401 40.7997 1.63425 0
24 1 Si 133.718 42.6718 1.62679 0
25 1 Si 125.717 40.3443 1.61549 0
26 1 Si 128.199 42.4411 1.6235 0
27 1 Si 106.275 2.30287 1.61368 0
28 1 Si 103.236 3.36459 1.64732 0
29 1 Si 108.616 4.40001 1.63528 0
30 1 Si 108.235 7.57944 1.63809 0
31 1 Si 105.323 8.94838 1.6328 0
32 1 Si 103.046 6.63304 1.63308 0
33 1 Si 108.321 176.627 1.63041 0
34 1 Si 100.573 1.4221 1.62494 0
35 1 Si 100.563 175.003 1.6249 0
36 1 Si 106.611 174.088 1.62233 0
37 1 Si 103.5 173.778 1.60085 0
38 1 Si 111.412 2.89057 1.63578 0
39 1 Si 111.55 176.54 1.60603 0
40 1 Si 113.988 4.69989 1.63647 0
41 1 Si 113.745 7.93126 1.63519 0
42 1 Si 110.86 9.40888 1.63112 0
43 1 Si 116.714 3.04546 1.6432 0
44 1 Si 117.12 176.719 1.6374 0
45 1 Si 114.414 174.96 1.64716 0
46 1 Si 119.493 4.5355 1.62333 0
47 1 Si 119.296 7.81306 1.64022 0
48 1 Si 116.492 9.6325 1.64476 0
49 1 Si 121.569 1.96772 1.6279 0
50 1 Si 120.23 175.767 1.62197 0
51 1 Si 124.648 2.88203 1.6297 0
52 1 Si 126.824 176.802 1.63591 0
53 1 Si 129.323 4.87799 1.62999 0
54 1 Si 129.681 1.49166 1.61997 0
55 1 Si 124.567 6.52841 1.64094 0
56 1 Si 127.565 7.7674 1.63052 0
57 1 Si 124.145 171.177 1.61834 0
58 1 Si 120.956 172.452 1.64955 0
59 1 Si 126.957 173.143 1.62529 0
60 1 Si 134.138 2.94212 1.6022 0
61 1 Si 132.346 5.559 1.61643 0
62 1 Si 132.774 0.0627728 1.63111 0
63 1 Si 136.875 4.45145 1.62565 0
64 1 Si 133.666 8.4253 1.63296 0
65 1 Si 136.765 7.65605 1.62719 0
66 1 Si 139.537 2.86212 1.6263 0
67 1 Si 140.183 176.578 1.62898 0
68 1 Si 134.692 174.026 1.62673 0
69 1 Si 138.212 173.941 1.63105 0
70 1 Si 144.476 2.9011 1.60537 0
71 1 Si 142.006 4.80605 1.61785 0
72 1 Si 143.437 176.728 1.63887 0
73 1 Si 146.679 5.21023 1.62243 0
74 1 Si 142.395 7.94026 1.63436 0
75 1 Si 145.624 8.31788 1.63255 0
76 1 Si 149.537 3.9139 1.62576 0
77 1 Si 150.181 0.739379 1.61625 0
78 1 Si 145.43 174.226 1.62952 0
79 1 Si 148.693 174.69 1.62761 0
80 1 Si 154.417 3.68798 1.60523 0
81 1 Si 152.058 5.86895 1.60262 0
82 1 Si 153.383 0.575595 1.60693 0
83 1 Si 156.767 5.93876 1.62461 0
84 1 Si 152.772 9.01103 1.63571 0
85 1 Si 156.056 9.20909 1.61786 0
86 1 Si 160.445 1.39045 1.63617 0
87 1 Si 159.682 4.67708 1.62476 0
88 1 Si 159.413 175.003 1.6243 0
89 1 Si 156.713 172.967 1.62036 0
90 1 Si 153.691 174.118 1.62795 0
91 1 Si 163.551 2.10174 1.61615 0
92 1 Si 164.139 5.16974 1.61881 0
93 1 Si 161.81 7.24607 1.61308 0
94 1 Si 166.607 1.1815 1.62629 0
95 1 Si 167.676 175.107 1.62573 0
96 1 Si 161.691 172.674 1.64864 0
97 1 Si 164.974 173.019 1.62069 0
98 1 Si 169.077 3.22601 1.62167 0
99 1 Si 167.22 5.74999 1.62932 0
100 1 Si 172.295 3.19984 1.63411 0
101 1 Si 173.777 5.94074 1.62906 0
102 1 Si 168.017 8.72656 1.6122 0
103 1 Si 173.254 8.94947 1.63133 0
104 1 Si 170.639 10.3513 1.6277 0
105 1 Si 174.153 0.550612 1.62047 0
106 1 Si 171.142 175.642 1.62024 0
107 1 Si 180.051 2.87432 1.62884 0
108 1 Si 179.47 6.09258 1.61377 0
109 1 Si 177.729 0.396345 1.64605 0
110 1 Si 176.602 7.26803 1.62951 0
111 1 Si 183.325 2.30099 1.62318 0
112 1 Si 185.599 4.5755 1.63403 0
113 1 Si 184.516 7.5973 1.63961 0
114 1 Si 181.478 8.65889 1.61969 0
115 1 Si 184.707 176.226 1.6401 0
116 1 Si 182.75 173.716 1.63714 0
117 1 Si 179.517 174.388 1.61621 0
118 1 Si 188.856 4.23851 1.62734 0
119 1 Si 189.674 7.43084 1.61827 0
120 1 Si 187.058 9.48654 1.61121 0
121 1 Si 190.139 1.19195 1.61752 0
122 1 Si 187.884 175.768 1.62912 0
123 1 Si 195.422 7.06988 1.62885 0
124 1 Si 196.407 3.43566 1.60785 0
125 1 Si 192.47 9.08085 1.63034 0
126 1 Si 192.704 175.947 1.62812 0
127 1 Si 195.772 176.695 1.6299 0
128 1 Si 202.013 5.18311 1.61367 0
129 1 Si 0.530921 3.24948 1.56423 0
130 1 Si 201.04 8.30395 1.62508 0
131 1 Si 2.7372 7.49878 1.57653 0
132 1 Si 3.31352 4.44206 1.59922 0
133 1 Si 202.951 10.9271 1.6179 0
134 1 Si 1.85949 10.4665 1.65751 0
135 1 Si 199.627 3.04444 1.6152 0
136 1 Si 203.771 176.263 1.61061 0
137 1 Si 200.777 0.108251 1.63726 0
138 1 Si 2.49687 0.510048 1.58512 0
139 1 Si 197.955 9.30898 1.60745 0
140 1 Si 5.7126 6.59384 1.59617 0
141 1 Si 6.27193 3.52851 1.59138 0
142 1 Si 122.257 9.16637 1.62513 0
143 1 Si 128.439 11.1619 1.62909 0
144 1 Si 132.033 11.263 1.61492 0
145 1 Si 139.475 9.41553 1.63174 0
146 1 Si 147.16 11.2369 1.63678 0
147 1 Si 150.572 11.4763 1.62687 0
148 1 Si 162.778 10.424 1.63836 0
149 1 Si 165.945 11.0845 1.63105 0
150 1 Si 175.968 10.3472 1.61055 0
151 1 Si 180.57 11.845 1.62828 0
152 1 Si 177.531 13.0591 1.6404 0
153 1 Si 198.479 12.5673 1.62244 0
154 1 Si 191.46 12.5793 1.62285 0
155 1 Si 196.518 15.0883 1.6239 0
156 1 Si 193.336 15.1956 1.62154 0
157 1 Si 201.465 13.7465 1.59464 0
158 1 Si 4.21253 12.5291 1.59901 0
159 1 Si 7.17646 11.5812 1.62012 0
160 1 Si 8.03974 8.61418 1.62883 0
161 1 Si 110.256 12.5635 1.62672 0
162 1 Si 104.666 12.2104 1.63772 0
163 1 Si 107.343 14.0614 1.62216 0
164 1 Si 115.926 12.9291 1.63897 0
165 1 Si 112.851 14.4211 1.63019 0
166 1 Si 122.195 12.6839 1.62019 0
167 1 Si 118.69 14.7619 1.6205 0
168 1 Si 125.496 13.9641 1.61819 0
169 1 Si 138.582 12.516 1.6309 0
170 1 Si 135.008 13.0913 1.6251 0
171 1 Si 141.588 14.268 1.61706 0
172 1 Si 145.083 13.899 1.64225 0
173 1 Si 157.595 12.241 1.63138 0
174 1 Si 160.904 13.1128 1.62911 0
175 1 Si 167.76 13.6996 1.61349 0
176 1 Si 170.899 13.4165 1.60072 0
177 1 Si 186.048 12.6216 1.63313 0
178 1 Si 182.974 13.9807 1.63011 0
179 1 Si 188.609 14.516 1.63663 0
180 1 Si 201.521 16.9862 1.62941 0
181 1 Si 0.131348 18.0948 1.6274 0
182 1 Si 3.10913 17.6273 1.63173 0
183 1 Si 5.19136 15.4927 1.628 0
184 1 Si 101.522 13.3408 1.63027 0
185 1 Si 100.153 7.8438 1.63402 0
186 1 Si 99.4566 10.9175 1.62271 0
187 1 Si 134.398 16.2393 1.62675 0
188 1 Si 125.549 17.7046 1.62949 0
189 1 Si 131.693 18.1173 1.61122 0
190 1 Si 128.578 19.2607 1.62347 0
191 1 Si 137.283 17.794 1.62144 0
192 1 Si 140.465 17.3294 1.62955 0
193 1 Si 152.203 14.3657 1.63341 0
194 1 Si 147.105 16.5315 1.62793 0
195 1 Si 150.348 17.0145 1.64369 0
196 1 Si 155.501 14.8129 1.63294 0
197 1 Si 162.35 16.3137 1.62002 0
198 1 Si 168.039 16.8711 1.6287 0
199 1 Si 165.256 18.3075 1.62037 0
200 1 Si 175.958 15.9772 1.6266 0
201 1 Si 172.777 15.9034 1.64812 0
202 1 Si 182.102 17.1758 1.61636 0
203 1 Si 176.663 19.2723 1.61978 0
204 1 Si 179.81 19.5487 1.6251 0
205 1 Si 196.954 18.2638 1.6099 0
206 1 Si 192.329 18.3389 1.62522 0
207 1 Si 194.587 20.4892 1.62091 0
208 1 Si 199.685 19.714 1.62777 0
209 1 Si 111.101 17.3007 1.62408 0
210 1 Si 107.685 17.3086 1.62635 0
211 1 Si 116.978 18.0751 1.63641 0
212 1 Si 113.298 19.7125 1.63338 0
213 1 Si 119.149 20.5485 1.61726 0
214 1 Si 122.64 20.2974 1.62002 0
215 1 Si 133.273 20.8716 1.6167 0
216 1 Si 136.395 20.7908 1.64947 0
217 1 Si 142.672 19.6637 1.63613 0
218 1 Si 145.801 19.3793 1.63696 0
219 1 Si 156.844 17.8372 1.63643 0
220 1 Si 160.033 18.5505 1.62401 0
221 1 Si 170.906 18.4461 1.62629 0
222 1 Si 187.597 17.72 1.63513 0
223 1 Si 184.662 19.0547 1.6294 0
224 1 Si 189.636 20.1733 1.6348 0
225 1 Si 0.745562 21.0688 1.59746 0
226 1 Si 3.78868 20.5859 1.59052 0
227 1 Si 9.25094 13.8887 1.63451 0
228 1 Si 8.05874 16.7817 1.62208 0
229 1 Si 105.009 19.4793 1.61958 0
230 1 Si 101.641 18.8786 1.63132 0
231 1 Si 99.7018 16.178 1.62993 0
232 1 Si 131.771 23.6753 1.64638 0
233 1 Si 128.724 22.6222 1.61262 0
234 1 Si 137.913 23.5159 1.61831 0
235 1 Si 143.162 22.7968 1.62911 0
236 1 Si 140.8 24.685 1.63075 0
237 1 Si 151.852 19.9552 1.63928 0
238 1 Si 147.428 22.125 1.63815 0
239 1 Si 150.482 22.8639 1.62683 0
240 1 Si 155.007 20.4991 1.64209 0
241 1 Si 161.131 21.5661 1.64711 0
242 1 Si 166.61 21.5009 1.62052 0
243 1 Si 163.925 23.0547 1.63161 0
244 1 Si 171.87 21.5977 1.62595 0
245 1 Si 175.063 22.3893 1.6342 0
246 1 Si 183.756 22.1518 1.62948 0
247 1 Si 180.639 22.7191 1.62955 0
248 1 Si 199.088 22.9039 1.62917 0
249 1 Si 193.905 23.7487 1.63009 0
250 1 Si 196.722 25.1554 1.62539 0
251 1 Si 105.275 22.832 1.62826 0
252 1 Si 102.106 23.8968 1.61691 0
253 1 Si 99.8046 21.5746 1.61817 0
254 1 Si 111.617 22.99 1.60699 0
255 1 Si 108.131 24.7532 1.63219 0
256 1 Si 117.495 23.5676 1.61754 0
257 1 Si 114.317 25.0126 1.62872 0
258 1 Si 123.046 23.6336 1.63248 0
259 1 Si 120.153 25.4409 1.63894 0
260 1 Si 133.437 26.4753 1.63525 0
261 1 Si 136.561 26.3209 1.62457 0
262 1 Si 145.736 24.7041 1.62702 0
263 1 Si 156.203 23.5341 1.63196 0
264 1 Si 159.278 24.0981 1.63389 0
265 1 Si 169.297 23.6167 1.62213 0
266 1 Si 185.794 24.5626 1.64371 0
267 1 Si 188.816 23.3848 1.63505 0
268 1 Si 201.454 24.9286 1.61529 0
269 1 Si 0.208665 24.0462 1.63995 0
270 1 Si 126.213 24.7243 1.62646 0
271 1 Si 126.987 27.8779 1.6418 0
272 1 Si 132.865 29.6901 1.61967 0
273 1 Si 129.663 29.8129 1.63801 0
274 1 Si 138.725 28.6142 1.65276 0
275 1 Si 141.694 27.7047 1.62975 0
276 1 Si 151.728 25.8982 1.62942 0
277 1 Si 146.912 27.719 1.64821 0
278 1 Si 150.043 28.673 1.62222 0
279 1 Si 154.888 26.4666 1.63276 0
280 1 Si 160.853 26.8534 1.64021 0
281 1 Si 163.899 26.2231 1.63188 0
282 1 Si 179.391 25.7698 1.64393 0
283 1 Si 176.086 25.8855 1.62534 0
284 1 Si 184.633 27.619 1.6256 0
285 1 Si 181.406 28.4321 1.63459 0
286 1 Si 191.164 25.5872 1.62241 0
287 1 Si 200.729 27.9793 1.60884 0
288 1 Si 197.47 28.3329 1.6333 0
289 1 Si 3.13004 25.2471 1.62726 0
290 1 Si 5.49503 23.1339 1.63674 0
291 1 Si 107.556 28.3688 1.63021 0
292 1 Si 104.548 30.7601 1.63467 0
293 1 Si 101.184 29.7738 1.63525 0
294 1 Si 100.248 26.5796 1.62974 0
295 1 Si 113.627 28.3559 1.64266 0
296 1 Si 110.568 29.9171 1.64375 0
297 1 Si 119.253 28.6566 1.62399 0
298 1 Si 116.359 30.246 1.62443 0
299 1 Si 124.456 29.7481 1.61145 0
300 1 Si 121.522 30.8586 1.64773 0
301 1 Si 138.279 31.7129 1.63285 0
302 1 Si 135.046 32.3006 1.64482 0
303 1 Si 144.325 29.5223 1.64401 0
304 1 Si 156.583 29.3432 1.62918 0
305 1 Si 159.858 29.8391 1.62944 0
306 1 Si 169.298 27.0149 1.62081 0
307 1 Si 166.299 28.2492 1.61333 0
308 1 Si 174.801 29.3122 1.63706 0
309 1 Si 171.302 29.6854 1.62415 0
310 1 Si 190.258 28.7399 1.63302 0
311 1 Si 187.096 29.6726 1.62668 0
312 1 Si 203.835 29.1185 1.62825 0
313 1 Si 2.97277 28.3552 1.62877 0
314 1 Si 144.176 32.743 1.62667 0
315 1 Si 140.971 33.6301 1.632 0
316 1 Si 151.73 31.5836 1.63781 0
317 1 Si 155.098 32.164 1.63451 0
318 1 Si 162.298 32.2028 1.62859 0
319 1 Si 165.666 31.4117 1.60816 0
320 1 Si 180.451 31.6654 1.63817 0
321 1 Si 177.017 32.2281 1.62763 0
322 1 Si 195.571 31.0882 1.65808 0
323 1 Si 192.186 31.3339 1.62098 0
324 1 Si 203.447 32.1973 1.62852 0
325 1 Si 200.707 33.8046 1.61264 0
326 1 Si 197.498 33.7272 1.63729 0
327 1 Si 2.13553 33.624 1.61676 0
328 1 Si 5.25243 32.6985 1.64315 0
329 1 Si 6.12241 29.5602 1.61786 0
330 1 Si 110.436 33.2604 1.63081 0
331 1 Si 104.837 34.3104 1.62681 0
332 1 Si 107.938 35.4916 1.62365 0
333 1 Si 116.176 33.5425 1.64333 0
334 1 Si 113.268 34.7296 1.63956 0
335 1 Si 121.562 34.0952 1.59248 0
336 1 Si 117.737 36.4519 1.6313 0
337 1 Si 120.798 37.2696 1.62038 0
338 1 Si 150.087 34.3657 1.64916 0
339 1 Si 146.801 34.8179 1.64795 0
340 1 Si 157.489 34.7104 1.62247 0
341 1 Si 161.007 35.2697 1.62706 0
342 1 Si 168.964 32.2644 1.62422 0
343 1 Si 186.371 32.8287 1.62277 0
344 1 Si 183.062 33.9894 1.6464 0
345 1 Si 189.677 33.5925 1.62232 0
346 1 Si 0.985137 36.5985 1.62733 0
347 1 Si 202 36.7001 1.60989 0
348 1 Si 102.621 37.0326 1.61782 0
349 1 Si 98.3414 31.7093 1.6144 0
350 1 Si 97.3586 34.8739 1.62652 0
351 1 Si 99.3442 37.3496 1.61952 0
352 1 Si 113.489 37.8493 1.63477 0
353 1 Si 116.259 39.2736 1.60147 0
354 1 Si 140.349 36.8142 1.64519 0
355 1 Si 152.244 36.7849 1.61495 0
356 1 Si 155.464 37.1583 1.63536 0
357 1 Si 11.5828 4.42803 1.64721 0
358 1 Si 11.0038 7.58292 1.64245 0
359 1 Si 9.1559 2.32842 1.64416 0
360 1 Si 169.573 35.5238 1.62574 0
361 1 Si 166.928 37.7787 1.62499 0
362 1 Si 163.324 38.0227 1.63928 0
363 1 Si 14.5777 3.28672 1.6349 0
364 1 Si 16.8104 5.78548 1.6367 0
365 1 Si 16.2473 9.04956 1.64439 0
366 1 Si 13.168 9.91107 1.63942 0
367 1 Si 14.8477 176.759 1.63872 0
368 1 Si 12.3732 174.461 1.60388 0
369 1 Si 9.55553 175.99 1.59867 0
370 1 Si 176.218 35.6777 1.63995 0
371 1 Si 172.824 36.6791 1.61392 0
372 1 Si 19.9534 5.08625 1.63479 0
373 1 Si 20.1608 1.68907 1.62126 0
374 1 Si 17.9708 175.87 1.62915 0
375 1 Si 22.1367 7.76298 1.61962 0
376 1 Si 21.5624 11.1068 1.62366 0
377 1 Si 18.2953 11.6098 1.62773 0
378 1 Si 182.276 37.3776 1.6364 0
379 1 Si 178.823 38.1721 1.629 0
380 1 Si 25.4383 3.44946 1.62196 0
381 1 Si 25.1796 6.72911 1.62999 0
382 1 Si 23.3224 1.01278 1.62373 0
383 1 Si 28.5224 3.00787 1.63186 0
384 1 Si 29.7342 5.87405 1.60508 0
385 1 Si 27.9583 8.43663 1.60298 0
386 1 Si 30.7841 0.871104 1.6338 0
387 1 Si 26.9754 173.6 1.64018 0
388 1 Si 30.0604 174.583 1.63492 0
389 1 Si 23.9667 174.723 1.63798 0
390 1 Si 38.5274 4.61299 1.61992 0
391 1 Si 36.2374 2.28664 1.62382 0
392 1 Si 32.7792 6.20774 1.62711 0
393 1 Si 33.2134 3.02399 1.62794 0
394 1 Si 39.1153 7.84674 1.62883 0
395 1 Si 33.435 9.33837 1.63269 0
396 1 Si 36.6697 10.1839 1.62338 0
397 1 Si 40.9476 2.56075 1.62218 0
398 1 Si 40.0382 176.368 1.62798 0
399 1 Si 36.89 175.953 1.61615 0
400 1 Si 196.538 36.8117 1.62035 0
401 1 Si 190.39 36.7072 1.6299 0
402 1 Si 193.461 37.886 1.61676 0
403 1 Si 43.9794 3.3294 1.63095 0
404 1 Si 44.7588 6.40191 1.61173 0
405 1 Si 42.3866 8.67267 1.6386 0
406 1 Si 46.288 1.12666 1.64306 0
407 1 Si 47.8947 5.65948 1.62429 0
408 1 Si 49.0789 2.64516 1.62141 0
409 1 Si 42.2102 174.081 1.63306 0
410 1 Si 45.354 174.899 1.62881 0
411 1 Si 3.12374 38.9178 1.62526 0
412 1 Si 6.28592 38.058 1.62268 0
413 1 Si 7.52828 34.9957 1.6302 0
414 1 Si 53.229 6.93533 1.60509 0
415 1 Si 50.1425 7.80705 1.62497 0
416 1 Si 54.9604 9.59331 1.61218 0
417 1 Si 49.436 10.8982 1.62286 0
418 1 Si 52.5815 11.7313 1.63308 0
419 1 Si 54.6417 4.08427 1.6289 0
420 1 Si 52.2381 1.8506 1.62678 0
421 1 Si 108.252 38.8467 1.62072 0
422 1 Si 106.148 41.472 1.62925 0
423 1 Si 103.056 40.3837 1.6252 0
424 1 Si 57.9453 4.07501 1.65063 0
425 1 Si 59.8146 6.8305 1.64106 0
426 1 Si 58.2224 9.74399 1.65601 0
427 1 Si 59.577 1.27943 1.61932 0
428 1 Si 55.9004 174.393 1.61262 0
429 1 Si 58.9817 174.976 1.62493 0
430 1 Si 52.9234 175.595 1.62794 0
431 1 Si 111.219 39.9312 1.63587 0
432 1 Si 64.5354 3.50344 1.62498 0
433 1 Si 62.7088 0.924158 1.60548 0
434 1 Si 63.1617 6.62401 1.64649 0
435 1 Si 199.355 38.4613 1.63007 0
436 1 Si 74.8803 3.54078 1.60565 0
437 1 Si 72.408 1.35528 1.61591 0
438 1 Si 75.0452 6.72987 1.6246 0
439 1 Si 69.6543 6.7603 1.61537 0
440 1 Si 69.6388 3.2673 1.62208 0
441 1 Si 72.4411 8.36663 1.6143 0
442 1 Si 78.0438 3.13411 1.62504 0
443 1 Si 79.4996 0.373964 1.61883 0
444 1 Si 76.7546 175.143 1.62367 0
445 1 Si 73.3336 174.909 1.63155 0
446 1 Si 67.0657 1.22741 1.62257 0
447 1 Si 66.8759 174.486 1.63308 0
448 1 Si 63.7231 174.708 1.62462 0
449 1 Si 80.0055 5.53485 1.62442 0
450 1 Si 76.7941 9.45829 1.61369 0
451 1 Si 79.6556 8.60276 1.64062 0
452 1 Si 82.9836 0.522143 1.62121 0
453 1 Si 85.878 2.55995 1.62803 0
454 1 Si 85.781 5.83276 1.62867 0
455 1 Si 82.8351 6.68971 1.62252 0
456 1 Si 83.694 174.21 1.63418 0
457 1 Si 81.39 172.003 1.61952 0
458 1 Si 78.2394 172.39 1.63095 0
459 1 Si 89.1026 1.57396 1.62161 0
460 1 Si 91.9855 3.2748 1.65627 0
461 1 Si 92.1094 6.71027 1.63692 0
462 1 Si 87.0261 8.91015 1.62647 0
463 1 Si 90.1949 9.52664 1.62398 0
464 1 Si 89.2954 175.173 1.62575 0
465 1 Si 86.7265 173.271 1.64686 0
466 1 Si 145.994 37.9375 1.63182 0
467 1 Si 142.937 38.8181 1.62232 0
468 1 Si 94.7396 1.25568 1.63508 0
469 1 Si 97.6203 2.77427 1.64169 0
470 1 Si 97.6059 5.96007 1.63813 0
471 1 Si 95.0813 7.84647 1.62318 0
472 1 Si 94.8663 174.731 1.63521 0
473 1 Si 97.8098 173.095 1.62244 0
474 1 Si 91.9108 173.299 1.62431 0
475 1 Si 151.112 39.762 1.6278 0
476 1 Si 148.032 40.4606 1.63275 0
477 1 Si 12.2206 12.9748 1.63452 0
478 1 Si 172.088 39.9025 1.62625 0
479 1 Si 168.779 40.5269 1.63337 0
480 1 Si 30.351 10.7064 1.63204 0
481 1 Si 23.4588 13.9117 1.63683 0
482 1 Si 29.7523 13.9399 1.62736 0
483 1 Si 26.6058 15.0523 1.62306 0
484 1 Si 188.019 38.9173 1.611 0
485 1 Si 184.895 39.7553 1.63744 0
486 1 Si 192.924 41.0224 1.61964 0
487 1 Si 189.852 41.4778 1.61419 0
488 1 Si 43.3669 11.7974 1.63822 0
489 1 Si 46.6243 12.5762 1.63577 0
490 1 Si 199.862 41.5655 1.62558 0
491 1 Si 202.894 42.6064 1.61986 0
492 1 Si 1.77721 41.7969 1.64614 0
493 1 Si 64.7665 9.62911 1.63591 0
494 1 Si 59.8508 12.6111 1.60867 0
495 1 Si 63.1005 12.5595 1.60976 0
496 1 Si 68.0869 9.70422 1.62787 0
497 1 Si 122.464 40.2263 1.62435 0
498 1 Si 73.3284 11.4778 1.60905 0
499 1 Si 76.395 12.6476 1.61701 0
500 1 Si 112.636 42.8008 1.63083 0
501 1 Si 115.895 42.4169 1.65362 0
502 1 Si 82.415 9.77229 1.59919 0
503 1 Si 84.9329 11.4676 1.63538 0
504 1 Si 138.542 43.0919 1.60427 0
505 1 Si 143.776 41.9476 1.61652 0
506 1 Si 141.533 44.0582 1.62993 0
507 1 Si 96.2903 10.7847 1.62961 0
508 1 Si 91.3218 12.7604 1.60407 0
509 1 Si 94.5282 13.3466 1.60813 0
510 1 Si 156.278 40.2202 1.6112 0
511 1 Si 153.495 41.7944 1.62567 0
512 1 Si 162.002 41.2343 1.61878 0
513 1 Si 158.774 42.1412 1.63859 0
514 1 Si 127.514 45.6261 1.6358 0
515 1 Si 124.236 45.7679 1.63918 0
516 1 Si 129.267 48.5077 1.62328 0
517 1 Si 130.466 55.6817 1.61474 0
518 1 Si 123.725 58.9337 1.61562 0
519 1 Si 129.04 58.7572 1.61908 0
520 1 Si 126.279 60.8372 1.62982 0
521 1 Si 17.0726 14.6574 1.6338 0
522 1 Si 14.0033 15.5728 1.63887 0
523 1 Si 177.878 41.55 1.63577 0
524 1 Si 174.485 42.2263 1.63222 0
525 1 Si 21.9148 16.7689 1.61834 0
526 1 Si 18.8176 17.3098 1.64401 0
527 1 Si 185.513 43.1737 1.62635 0
528 1 Si 179.972 44.3837 1.61321 0
529 1 Si 183.193 45.5102 1.62092 0
530 1 Si 37.6795 13.3886 1.62699 0
531 1 Si 32.2878 16.2198 1.61243 0
532 1 Si 35.5883 15.9875 1.64127 0
533 1 Si 40.9683 14.0975 1.63444 0
534 1 Si 197.679 43.9548 1.61417 0
535 1 Si 194.402 43.828 1.62224 0
536 1 Si 53.3684 14.7542 1.61034 0
537 1 Si 47.4924 15.6779 1.64334 0
538 1 Si 50.626 16.36 1.62526 0
539 1 Si 107.068 44.7875 1.6278 0
540 1 Si 104.921 47.6693 1.63784 0
541 1 Si 101.379 48.3041 1.63187 0
542 1 Si 100.323 42.3737 1.62232 0
543 1 Si 99.39 45.6265 1.63313 0
544 1 Si 110.464 45.2047 1.6176 0
545 1 Si 59.0555 15.8284 1.62358 0
546 1 Si 55.9651 16.6429 1.62958 0
547 1 Si 118.567 44.2651 1.62465 0
548 1 Si 121.778 43.4437 1.63052 0
549 1 Si 70.2455 12.3366 1.62711 0
550 1 Si 134.057 45.9264 1.61637 0
551 1 Si 137.198 45.9179 1.61235 0
552 1 Si 146.712 43.3805 1.6144 0
553 1 Si 153.429 44.961 1.61363 0
554 1 Si 147.708 46.5897 1.63375 0
555 1 Si 151.03 47.358 1.62946 0
556 1 Si 167.388 43.5912 1.64534 0
557 1 Si 163.861 44.0101 1.61945 0
558 1 Si 12.6861 18.5415 1.63105 0
559 1 Si 9.62417 19.5281 1.63603 0
560 1 Si 26.6484 18.3661 1.63294 0
561 1 Si 23.6569 19.4376 1.62694 0
562 1 Si 173.241 45.3477 1.63172 0
563 1 Si 169.879 45.954 1.62853 0
564 1 Si 31.865 19.5392 1.62185 0
565 1 Si 28.8716 20.8055 1.6303 0
566 1 Si 188.678 44.3576 1.59455 0
567 1 Si 202.817 45.766 1.6173 0
568 1 Si 199.694 46.5277 1.62409 0
569 1 Si 42.0641 17.232 1.64141 0
570 1 Si 45.2525 18.028 1.63965 0
571 1 Si 3.73844 44.3038 1.61829 0
572 1 Si 6.88861 43.4503 1.6311 0
573 1 Si 8.39218 40.4757 1.62484 0
574 1 Si 1.69252 46.8202 1.64213 0
575 1 Si 191.705 45.7656 1.62378 0
576 1 Si 63.9455 15.7891 1.6299 0
577 1 Si 61.5031 18.0683 1.61022 0
578 1 Si 112.014 48.0851 1.62938 0
579 1 Si 70.0342 15.6007 1.62185 0
580 1 Si 67.0108 16.9418 1.61262 0
581 1 Si 84.3809 14.6448 1.61788 0
582 1 Si 78.0186 15.6008 1.64437 0
583 1 Si 81.3984 16.1525 1.64629 0
584 1 Si 132.651 48.899 1.64176 0
585 1 Si 139.298 48.2304 1.63915 0
586 1 Si 142.277 47.1598 1.61884 0
587 1 Si 90.4231 15.9611 1.62056 0
588 1 Si 87.1089 16.572 1.62216 0
589 1 Si 156.742 44.7932 1.62039 0
590 1 Si 96.1805 16.1641 1.61507 0
591 1 Si 93.2799 17.9596 1.6242 0
592 1 Si 158.138 47.6052 1.62376 0
593 1 Si 161.548 46.6797 1.62599 0
594 1 Si 14.5244 21.064 1.63084 0
595 1 Si 17.581 20.2503 1.63266 0
596 1 Si 36.8321 19.0377 1.62064 0
597 1 Si 34.594 21.3943 1.61769 0
598 1 Si 178.691 47.4307 1.63005 0
599 1 Si 175.454 47.877 1.63406 0
600 1 Si 39.9802 19.7653 1.63547 0
601 1 Si 51.6979 19.268 1.62473 0
602 1 Si 54.8491 19.6138 1.61477 0
603 1 Si 183.774 48.9574 1.61935 0
604 1 Si 180.69 50.0967 1.63083 0
605 1 Si 192.204 48.9199 1.62609 0
606 1 Si 198.872 49.6212 1.64146 0
607 1 Si 195.473 49.9362 1.61478 0
608 1 Si 72.5352 17.8816 1.62311 0
609 1 Si 67.4988 20.1751 1.63208 0
610 1 Si 70.7619 20.6286 1.63486 0
611 1 Si 106.747 50.4742 1.61117 0
612 1 Si 109.945 50.5563 1.6256 0
613 1 Si 75.9522 18.282 1.62702 0
614 1 Si 138.302 51.2251 1.63931 0
615 1 Si 134.899 51.5956 1.63304 0
616 1 Si 145.097 48.7419 1.63295 0
617 1 Si 8.61663 22.6627 1.62006 0
618 1 Si 13.6198 24.1321 1.61869 0
619 1 Si 10.5456 25.3188 1.64606 0
620 1 Si 155.755 50.1589 1.63013 0
621 1 Si 152.332 50.5055 1.6257 0
622 1 Si 22.4808 22.4622 1.65263 0
623 1 Si 19.2381 22.9315 1.61929 0
624 1 Si 169.063 49.1738 1.6401 0
625 1 Si 162.797 49.5892 1.62859 0
626 1 Si 165.983 50.2835 1.62238 0
627 1 Si 24.7283 24.8028 1.62128 0
628 1 Si 28.0184 24.0928 1.61843 0
629 1 Si 174.493 51.0404 1.64344 0
630 1 Si 171.308 51.6341 1.61488 0
631 1 Si 46.371 21.1334 1.65357 0
632 1 Si 40.9362 22.9223 1.63603 0
633 1 Si 44.1545 23.5535 1.62469 0
634 1 Si 189.497 50.9258 1.60974 0
635 1 Si 186.14 51.5294 1.6379 0
636 1 Si 2.70194 49.8602 1.62034 0
637 1 Si 201.44 51.8878 1.64845 0
638 1 Si 0.624389 52.3241 1.61795 0
639 1 Si 49.6224 21.6115 1.61246 0
640 1 Si 61.8274 21.5223 1.63568 0
641 1 Si 55.7827 22.618 1.63811 0
642 1 Si 59.0377 23.6479 1.66166 0
643 1 Si 65.1458 22.5754 1.63386 0
644 1 Si 106.651 53.7519 1.62418 0
645 1 Si 103.922 55.1666 1.62907 0
646 1 Si 99.4179 51.3043 1.62973 0
647 1 Si 100.982 54.1097 1.62513 0
648 1 Si 5.82415 50.8338 1.61639 0
649 1 Si 9.04572 45.7655 1.6217 0
650 1 Si 8.48557 48.9543 1.61973 0
651 1 Si 111.166 53.5152 1.63363 0
652 1 Si 82.5891 19.1263 1.61678 0
653 1 Si 77.4787 21.3728 1.63819 0
654 1 Si 80.8513 21.7806 1.62133 0
655 1 Si 85.8038 19.5064 1.61235 0
656 1 Si 141.203 52.981 1.63298 0
657 1 Si 144.56 52.0438 1.63886 0
658 1 Si 93.3473 21.3509 1.63525 0
659 1 Si 86.9059 22.5453 1.62988 0
660 1 Si 90.386 23.3995 1.62827 0
661 1 Si 160.633 52.0525 1.62006 0
662 1 Si 157.483 52.8776 1.64063 0
663 1 Si 16.7304 25.0653 1.62935 0
664 1 Si 165.663 53.4329 1.62406 0
665 1 Si 162.671 54.4302 1.62585 0
666 1 Si 179.664 53.3455 1.64451 0
667 1 Si 176.28 53.8063 1.61946 0
668 1 Si 35.4988 24.6055 1.63642 0
669 1 Si 38.758 25.4195 1.63732 0
670 1 Si 194.652 52.9547 1.6318 0
671 1 Si 191.492 53.4561 1.62925 0
672 1 Si 52.4962 23.2524 1.61959 0
673 1 Si 200.144 54.7853 1.6391 0
674 1 Si 196.952 55.1295 1.61415 0
675 1 Si 109.107 55.9148 1.61819 0
676 1 Si 72.1963 23.5546 1.63178 0
677 1 Si 66.5077 25.7153 1.62842 0
678 1 Si 69.8851 25.9083 1.61974 0
679 1 Si 75.5243 24.0743 1.62395 0
680 1 Si 96.594 22.5172 1.6425 0
681 1 Si 134.116 54.8765 1.64354 0
682 1 Si 140.44 56.1281 1.63829 0
683 1 Si 137.137 56.862 1.62411 0
684 1 Si 9.40686 28.5243 1.64324 0
685 1 Si 150.766 53.6685 1.63844 0
686 1 Si 147.287 54.1837 1.63861 0
687 1 Si 17.2735 28.1743 1.62533 0
688 1 Si 20.4131 29.0081 1.62438 0
689 1 Si 23.4152 27.7988 1.65616 0
690 1 Si 156.276 55.994 1.63733 0
691 1 Si 152.885 56.448 1.63221 0
692 1 Si 30.0641 26.7526 1.64514 0
693 1 Si 33.3521 27.1128 1.63677 0
694 1 Si 170.802 54.89 1.61404 0
695 1 Si 167.66 55.8727 1.61803 0
696 1 Si 45.0822 26.6673 1.6287 0
697 1 Si 39.8448 28.6088 1.65722 0
698 1 Si 43.0741 29.3046 1.62221 0
699 1 Si 185.266 54.9642 1.63013 0
700 1 Si 181.947 55.906 1.626 0
701 1 Si 51.358 26.1147 1.63272 0
702 1 Si 48.2555 26.9649 1.63505 0
703 1 Si 59.3868 26.9716 1.64214 0
704 1 Si 53.9993 27.8816 1.61623 0
705 1 Si 56.9077 28.9871 1.62816 0
706 1 Si 173.859 56.1929 1.61981 0
707 1 Si 64.8596 28.6843 1.62509 0
708 1 Si 61.6825 29.291 1.62886 0
709 1 Si 190.823 56.5652 1.61318 0
710 1 Si 187.705 57.4117 1.618 0
711 1 Si 83.6445 23.7069 1.62373 0
712 1 Si 76.7796 27.1989 1.63721 0
713 1 Si 82.991 26.8568 1.62471 0
714 1 Si 79.9506 28.2257 1.63165 0
715 1 Si 2.79064 54.9283 1.62458 0
716 1 Si 6.0758 54.1004 1.61576 0
717 1 Si 201.995 57.4094 1.60438 0
718 1 Si 1.16547 57.8302 1.61888 0
719 1 Si 97.0339 25.7142 1.62519 0
720 1 Si 91.101 26.7204 1.62167 0
721 1 Si 94.3476 27.5651 1.63249 0
722 1 Si 110.269 58.9829 1.63472 0
723 1 Si 113.544 59.3202 1.62519 0
724 1 Si 15.0095 30.5458 1.61589 0
725 1 Si 11.7178 30.9841 1.6419 0
726 1 Si 20.109 32.1971 1.62628 0
727 1 Si 17.0349 33.0814 1.62608 0
728 1 Si 146.287 57.3591 1.63049 0
729 1 Si 143.078 58.1678 1.62461 0
730 1 Si 25.567 30.1474 1.63869 0
731 1 Si 28.662 29.6584 1.62858 0
732 1 Si 161.94 57.4895 1.62583 0
733 1 Si 158.68 58.3942 1.6572 0
734 1 Si 34.6329 30.1451 1.62652 0
735 1 Si 37.6769 31.1059 1.61804 0
736 1 Si 165.216 58.1053 1.6227 0
737 1 Si 49.0065 29.9207 1.61815 0
738 1 Si 52.0448 30.2104 1.62679 0
739 1 Si 174.346 59.4404 1.62784 0
740 1 Si 180.826 59.1616 1.65326 0
741 1 Si 177.589 60.181 1.59828 0
742 1 Si 196.251 58.2422 1.61279 0
743 1 Si 193.043 59.0379 1.63148 0
744 1 Si 71.3194 28.7668 1.62829 0
745 1 Si 66.308 31.6751 1.62343 0
746 1 Si 69.4728 31.3551 1.62379 0
747 1 Si 74.4882 29.5484 1.64384 0
748 1 Si 108.439 61.7479 1.63502 0
749 1 Si 105.115 61.1441 1.64516 0
750 1 Si 103.541 58.2774 1.60371 0
751 1 Si 120.598 59.8449 1.61312 0
752 1 Si 85.5602 28.9076 1.62561 0
753 1 Si 88.8224 29.2284 1.63818 0
754 1 Si 137.365 60.1629 1.62714 0
755 1 Si 131.378 60.7291 1.63884 0
756 1 Si 134.421 61.1799 1.62288 0
757 1 Si 151.767 59.6957 1.63337 0
758 1 Si 148.302 60.0012 1.62285 0
759 1 Si 10.7499 34.1819 1.64385 0
760 1 Si 142.818 61.4447 1.61513 0
761 1 Si 139.662 62.6481 1.63035 0
762 1 Si 22.3849 34.5032 1.60973 0
763 1 Si 25.2773 33.3239 1.62947 0
764 1 Si 157.699 61.6164 1.62047 0
765 1 Si 154.234 62.2245 1.62801 0
766 1 Si 30.0155 32.5349 1.62729 0
767 1 Si 33.0872 32.9316 1.6228 0
768 1 Si 165.861 61.1552 1.61965 0
769 1 Si 168.809 62.4647 1.61718 0
770 1 Si 172.141 62.0279 1.62082 0
771 1 Si 44.3472 32.3765 1.62847 0
772 1 Si 37.4007 34.4431 1.63314 0
773 1 Si 43.1173 35.3184 1.60595 0
774 1 Si 40.0653 36.1827 1.60749 0
775 1 Si 188.383 60.7129 1.6161 0
776 1 Si 182.742 61.9024 1.61617 0
777 1 Si 185.996 62.8901 1.62883 0
778 1 Si 47.4956 32.633 1.62525 0
779 1 Si 199.359 59.4024 1.61544 0
780 1 Si 60.6044 32.4522 1.62133 0
781 1 Si 57.4598 32.1778 1.6388 0
782 1 Si 191.477 61.9758 1.59984 0
783 1 Si 61.8888 35.5287 1.64925 0
784 1 Si 65.1822 34.8308 1.63381 0
785 1 Si 200.186 62.469 1.62399 0
786 1 Si 203.554 63.0002 1.61193 0
787 1 Si 2.22576 61.0407 1.6179 0
788 1 Si 80.773 31.3669 1.6199 0
789 1 Si 74.7596 32.8069 1.61663 0
790 1 Si 76.8587 35.4041 1.6264 0
791 1 Si 79.96 34.5598 1.62846 0
792 1 Si 83.9091 31.6137 1.63288 0
793 1 Si 115.351 61.9447 1.63265 0
794 1 Si 118.601 62.3254 1.63227 0
795 1 Si 95.2479 30.6459 1.61856 0
796 1 Si 89.739 32.4505 1.63219 0
797 1 Si 92.9148 32.8988 1.62809 0
798 1 Si 130.643 63.724 1.62362 0
799 1 Si 133.688 64.1962 1.63024 0
800 1 Si 146.021 62.4976 1.62499 0
801 1 Si 16.2835 36.245 1.63835 0
802 1 Si 12.9553 36.674 1.64355 0
803 1 Si 163.532 63.4051 1.61865 0
804 1 Si 160.196 64.0389 1.63193 0
805 1 Si 18.74 38.6072 1.63178 0
806 1 Si 22.1726 37.7714 1.61344 0
807 1 Si 166.494 64.7285 1.61737 0
808 1 Si 28.0021 34.9374 1.62227 0
809 1 Si 177.174 63.3825 1.59787 0
810 1 Si 174.166 64.6394 1.63129 0
811 1 Si 34.4026 35.8585 1.60136 0
812 1 Si 180.298 64.072 1.62315 0
813 1 Si 191.928 65.3937 1.61848 0
814 1 Si 197.517 64.4535 1.57916 0
815 1 Si 194.909 66.4551 1.64227 0
816 1 Si 52.5021 33.1987 1.62088 0
817 1 Si 49.8044 34.727 1.6362 0
818 1 Si 55.2737 34.5179 1.61444 0
819 1 Si 110.275 64.6373 1.63198 0
820 1 Si 113.603 64.5534 1.62113 0
821 1 Si 109.513 67.8911 1.62985 0
822 1 Si 106.381 69.1126 1.63089 0
823 1 Si 103.681 66.72 1.60549 0
824 1 Si 102.82 63.4439 1.63001 0
825 1 Si 71.6757 33.6072 1.61698 0
826 1 Si 125.459 64.189 1.62023 0
827 1 Si 128.292 65.7145 1.62341 0
828 1 Si 119.61 65.3554 1.6267 0
829 1 Si 122.835 66.3654 1.64841 0
830 1 Si 84.8122 34.6649 1.62819 0
831 1 Si 87.9382 35.2622 1.6226 0
832 1 Si 135.355 66.832 1.6215 0
833 1 Si 138.708 65.9974 1.62988 0
834 1 Si 153.287 65.5116 1.63699 0
835 1 Si 146.849 65.7094 1.63177 0
836 1 Si 150.069 66.7713 1.61244 0
837 1 Si 11.6447 39.688 1.6321 0
838 1 Si 159.159 67.2741 1.6269 0
839 1 Si 155.813 67.799 1.63941 0
840 1 Si 167.096 67.7938 1.62466 0
841 1 Si 173.401 67.8847 1.65558 0
842 1 Si 170.212 68.8309 1.61533 0
843 1 Si 28.7409 38.0058 1.63817 0
844 1 Si 32.2181 38.4406 1.63801 0
845 1 Si 187.007 66.0654 1.62317 0
846 1 Si 181.36 66.959 1.60212 0
847 1 Si 184.377 67.7298 1.60378 0
848 1 Si 44.4721 38.2739 1.61073 0
849 1 Si 50.4445 37.7687 1.64009 0
850 1 Si 47.625 39.5876 1.63614 0
851 1 Si 189.713 67.9655 1.61692 0
852 1 Si 203.427 66.1832 1.6355 0
853 1 Si 198.066 67.5326 1.61059 0
854 1 Si 201.011 68.2277 1.61614 0
855 1 Si 53.8361 37.4498 1.6246 0
856 1 Si 56.4396 39.4217 1.61917 0
857 1 Si 60.0464 38.6306 1.63397 0
858 1 Si 1.46993 68.3421 1.61664 0
859 1 Si 4.55973 68.5228 1.63047 0
860 1 Si 5.43941 62.2695 1.63188 0