LAMMPS data file via write_data, version 23 Jun 2022, timestep = 8479

15732 atoms
2 atom types

5.0395503877336525 201.5134825862841 xlo xhi
5.255209426157367 172.10432322244654 ylo yhi
-100 100 zlo zhi

Masses

1 28.085
2 15.999

Atoms # full

6683 1 1 0 5.663354436824168 6.291827143775079 -1.5993251405153712 0 0 0
9401 1 2 0 6.938323427008525 5.388884377532567 -2.1268440548941148 0 1 0
9473 1 2 0 11.623887213174482 7.368649590649717 -2.0676426409400426 0 0 0
6730 1 1 0 12.837942817402046 6.262671452668027 -1.620717084804158 0 0 0
9478 1 2 0 14.431009141928255 5.922296336957278 -2.11192966962146 0 0 0
6875 1 1 0 16.004622145000504 5.513087936886096 -1.6128572951127507 0 0 0
9697 1 2 0 16.807958227292605 6.929320845219449 -1.9400752708013262 0 0 0
9715 1 2 0 22.310327430806694 5.4139957413578195 -2.118389711072849 0 0 0
6885 1 1 0 23.66100602775548 6.22900274223539 -1.5824366412712032 0 0 0
9716 1 2 0 25.226550452363366 6.3950455307264455 -2.1281298721142816 0 0 0
6898 1 1 0 26.79633303914624 6.551958621482576 -1.5744560808648285 0 0 0
9731 1 2 0 28.334103675032605 6.895396071332429 -2.1083922213434327 0 0 0
6894 1 1 0 29.899350254676254 6.891508504357341 -1.5752380355835898 0 0 0
9730 1 2 0 31.10696917725599 5.942325513583041 -2.1498296671739343 0 0 0
9734 1 2 0 33.90135768015167 5.281269418991308 -2.153104413188373 0 0 0
6897 1 1 0 35.396800615378204 5.707470076488845 -1.6100409356285372 0 0 0
9732 1 2 0 35.33818130153201 7.302283210020623 -2.0279748611506787 0 0 0
6914 1 1 0 40.86905301872639 7.0561286844608775 -1.6083134283390057 0 0 0
9765 1 2 0 40.968711086814565 5.489544100038949 -2.1082686114528304 0 0 0
9749 1 2 0 46.43811918322898 5.93379921541066 -2.0385315370048835 0 0 0
6904 1 1 0 46.34679585480592 7.551751123126707 -1.6317206577079966 0 0 0
9760 1 2 0 49.948584696086705 5.416176393695112 -2.0735896284097395 0 0 0
6911 1 1 0 50.522153914447124 6.942587970525368 -1.6241849274177866 0 0 0
9761 1 2 0 52.073228369894245 7.14577906434949 -2.1408838915532518 0 0 0
6919 1 1 0 53.61816936719012 7.149363480087577 -1.5988000531034952 0 0 0
9774 1 2 0 54.224272186773604 5.674071197782302 -1.9050272179199126 0 0 0
6927 1 1 0 58.33329265370828 5.468115348640717 -1.6119884091158259 0 0 0
9778 1 2 0 58.8800103471797 6.964846366217899 -1.9474503360213409 0 0 0
6928 1 1 0 63.810889131951036 7.688022452097144 -1.5789271149472954 0 0 0
9788 1 2 0 63.14475231217741 6.224219545388339 -1.7989394991917826 0 0 0
9795 1 2 0 67.05257093217593 5.978917121541726 -2.0244660398100716 0 0 0
6932 1 1 0 66.92016398677801 7.5780351544815465 -1.6281918579250787 0 0 0
9804 1 2 0 72.46865977134772 6.132071563121609 -2.1246371903068817 0 0 0
6939 1 1 0 72.9915497269154 7.613933714764731 -1.6113511208588023 0 0 0
9813 1 2 0 76.82569497803576 6.968021127563989 -1.9486012702870776 0 0 0
6948 1 1 0 78.19382450359144 6.194899698487227 -1.5840134082132507 0 0 0
9820 1 2 0 79.4767416473406 7.143835918633212 -1.8451920452993749 0 0 0
6953 1 1 0 81.07376156654112 7.261402711679028 -1.5813297841208205 0 0 0
9828 1 2 0 81.5187616519395 5.81048383578669 -2.1678575487031138 0 0 0
6957 1 1 0 85.78561313743448 6.496589049834062 -1.5765239498024768 0 0 0
9835 1 2 0 87.35466845663996 6.250621405038679 -1.8303029286187558 0 0 0
9840 1 2 0 89.84446364181112 6.107988482619808 -1.996450625884311 0 0 0
6962 1 1 0 90.47970261634089 7.536177218583712 -1.5918437134694043 0 0 0
9843 1 2 0 92.04598848800958 7.626979036066802 -1.8673405045035056 0 0 0
6971 1 1 0 93.42123143671033 6.846327800611119 -1.5873150135263283 0 0 0
9856 1 2 0 93.04164763191349 5.377516350636491 -2.1687366966036183 0 0 0
6977 1 1 0 99.96456036795303 7.419244610374038 -1.6529260220775244 0 0 0
9866 1 2 0 99.24121313000552 6.013263624895362 -2.1625657656539587 0 0 0
6690 1 1 0 103.09542182658026 7.273094830771506 -1.614594607153735 0 0 0
9413 1 2 0 101.54578239694528 7.525013497775387 -2.1073460851836163 0 0 0
9399 1 2 0 6.141243097976137 7.817008973615953 -1.8929623544596992 0 0 0
6682 1 1 0 7.152955480516036 9.070183075472015 -1.589221171661268 0 0 0
9400 1 2 0 8.721403546455111 8.64235451527176 -2.0939587926435284 0 0 0
6727 1 1 0 10.342735911020208 8.398668152169522 -1.6150055206668779 0 0 0
9472 1 2 0 11.004778171011946 9.823271086405715 -2.062897469438882 0 0 0
9691 1 2 0 16.03834375841871 9.643281212968963 -2.11937463552389 0 0 0
6874 1 1 0 17.186502037760498 8.512143172959233 -1.61619021831887 0 0 0
9698 1 2 0 18.785898109675617 8.657207676293192 -2.0952238547164725 0 0 0
6876 1 1 0 20.325337995156122 9.077134983382996 -1.5681403218468972 0 0 0
9701 1 2 0 21.93738069318821 9.279390879003518 -2.0857479561237824 0 0 0
6881 1 1 0 23.584187263909218 9.350419309880811 -1.5659706371869524 0 0 0
9709 1 2 0 23.211423681834845 7.767678048351889 -1.783685975868355 0 0 0
9708 1 2 0 25.20447967697343 9.502042444409376 -2.0709438119161137 0 0 0
6882 1 1 0 26.82709030186687 9.643661337348751 -1.5698035443091356 0 0 0
9711 1 2 0 28.466304494373677 9.707740902609233 -2.0955437654075335 0 0 0
6889 1 1 0 30.05501616303993 9.964830376249427 -1.5611658102731356 0 0 0
9722 1 2 0 30.4829064372702 8.399326232715762 -1.659033320777717 0 0 0
9724 1 2 0 34.166478827711536 9.912518097971628 -2.1159069392417265 0 0 0
6895 1 1 0 35.400195126115655 8.899091444843675 -1.617662411570598 0 0 0
9733 1 2 0 36.948022208592754 9.156572292964885 -2.132992513926211 0 0 0
6900 1 1 0 38.51160215151602 9.142284232977254 -1.6199133813135402 0 0 0
9741 1 2 0 39.43947069717347 7.815279324962235 -1.9184485795804427 0 0 0
9752 1 2 0 42.15500536360969 7.935814561564126 -2.1283906983834964 0 0 0
6906 1 1 0 43.49334152764281 8.754460825640301 -1.6524754076324502 0 0 0
9748 1 2 0 44.88271051248617 8.063675850577201 -2.161673593210334 0 0 0
9745 1 2 0 47.45808493081659 8.719000588531706 -2.089833243070528 0 0 0
6903 1 1 0 48.75893395164157 9.681734707496153 -1.6195795670013162 0 0 0
9747 1 2 0 49.821686608844544 8.426344264704818 -1.980456253594541 0 0 0
9770 1 2 0 54.669057647216924 8.278981740994498 -2.142494997804588 0 0 0
6917 1 1 0 55.81051404230648 9.338005836425124 -1.6452333057047486 0 0 0
9771 1 2 0 57.33468560354789 9.018539888091361 -2.13013384975128 0 0 0
6922 1 1 0 58.80669485724179 8.554908780357069 -1.605639475527378 0 0 0
9777 1 2 0 60.12283768405428 9.38457195293613 -2.1294883480330675 0 0 0
6923 1 1 0 61.63023729248056 9.82065353994978 -1.6563973787916668 0 0 0
9780 1 2 0 62.73651902739746 8.746055744697314 -2.169027155344009 0 0 0
9789 1 2 0 65.36203036599443 7.863510804908212 -2.055046991199803 0 0 0
9794 1 2 0 67.89615994992943 8.817864077637498 -2.13285370741811 0 0 0
9803 1 2 0 71.98664029879436 8.869917503814323 -1.8908441990354887 0 0 0
9805 1 2 0 74.4695676247753 8.084073634245353 -2.143729869130994 0 0 0
6944 1 1 0 75.9944485272676 8.31551157092953 -1.6085944045160057 0 0 0
9812 1 2 0 77.00127057571275 9.491196547496504 -2.1407129390319493 0 0 0
9827 1 2 0 81.59812574236732 8.74959439502365 -1.9604503457643296 0 0 0
6958 1 1 0 85.84320879059582 9.51787656934248 -1.633127288479178 0 0 0
9833 1 2 0 85.45680238873216 8.004125905645372 -2.042524446039476 0 0 0
9837 1 2 0 87.32130736096377 9.917003337569843 -2.1511581169692766 0 0 0
9842 1 2 0 89.68288502435573 8.803805489828328 -2.187657444051659 0 0 0
6963 1 1 0 88.84767866623312 10.07988836511584 -1.6549324676691946 0 0 0
9855 1 2 0 94.46644382167683 7.966337123496663 -2.1077212033861956 0 0 0
6972 1 1 0 95.01477962663368 9.41776559072921 -1.6255265130046876 0 0 0
6978 1 1 0 98.08205477104414 9.938499288985547 -1.602359585662887 0 0 0
9858 1 2 0 96.58960973878294 9.436740188408953 -1.9986239880134284 0 0 0
9865 1 2 0 99.15071679657963 8.784365343471348 -2.106202869911663 0 0 0
9397 1 2 0 5.980497683988374 10.197610450987833 -2.0834409022902975 0 0 0
6728 1 1 0 11.824579253428876 11.152774716283677 -1.61371826564931 0 0 0
9474 1 2 0 10.830043589854666 12.406628693236604 -2.0363643019833044 0 0 0
9475 1 2 0 13.392419127373447 10.968301399486698 -2.146744118237226 0 0 0
6870 1 1 0 14.982441159364926 10.866166428607185 -1.6423288362910495 0 0 0
9690 1 2 0 15.491142724341184 12.362942589951315 -2.104001442110412 0 0 0
9700 1 2 0 20.004280213461332 10.661141379240657 -1.7297858916773035 0 0 0
6877 1 1 0 20.731556189961438 12.076150568500083 -1.5827175550622727 0 0 0
9703 1 2 0 22.27590554650462 11.966388972167723 -2.0470839708306947 0 0 0
9710 1 2 0 27.205667612715764 11.228160511846614 -1.782348792160866 0 0 0
9721 1 2 0 31.464475082316795 10.743824186151162 -2.0459959703015094 0 0 0
6890 1 1 0 33.0602235443395 11.087475235068293 -1.6500083257628255 0 0 0
9738 1 2 0 39.24782973942038 10.497360928679072 -2.1585643880216496 0 0 0
6899 1 1 0 39.91408432295772 11.882721384171372 -1.617312699314579 0 0 0
9740 1 2 0 41.48386279888847 12.00850021096888 -2.0204402357139046 0 0 0
6905 1 1 0 43.04737935613737 11.806492305189877 -1.6135759320547285 0 0 0
9750 1 2 0 43.46582176634724 10.316659517808766 -2.1355684513124467 0 0 0
9746 1 2 0 49.001851828027775 11.34416820609932 -2.068006510406182 0 0 0
9769 1 2 0 55.48830783151335 10.84180572346327 -2.1584330664026594 0 0 0
6918 1 1 0 55.443826194387924 12.385147870182674 -1.6595381073285733 0 0 0
9779 1 2 0 62.282765298955006 11.237007812608326 -2.1369661110136544 0 0 0
6924 1 1 0 63.237137498333716 12.468835729507795 -1.627200059149846 0 0 0
9782 1 2 0 64.82184867345302 12.39183766183456 -2.0585562273630225 0 0 0
6933 1 1 0 68.48758945994174 10.293097843086413 -1.6453100349025103 0 0 0
9796 1 2 0 67.44636393323965 11.495492242716232 -2.095736770549793 0 0 0
9797 1 2 0 70.05680657882266 10.603379967411446 -2.08158447328801 0 0 0
6940 1 1 0 71.63975060497657 10.448093887572691 -1.6047726317267352 0 0 0
9806 1 2 0 72.8466656479015 11.478886320334489 -2.1296622858143603 0 0 0
9814 1 2 0 77.71969729448509 11.995031982772833 -2.01362985586898 0 0 0
6945 1 1 0 78.16824080007947 10.50601083167707 -1.6141911308010395 0 0 0
9815 1 2 0 79.69784310451789 10.422613523945081 -2.1771477395295924 0 0 0
6954 1 1 0 81.2262927312389 10.2985831066192 -1.6202875224873852 0 0 0
9829 1 2 0 82.35808270429477 11.390087984982546 -2.0349624752749707 0 0 0
6960 1 1 0 83.87439739452292 11.808592542898197 -1.62617951109432 0 0 0
9836 1 2 0 84.78335174835028 10.594255359821087 -2.1763973472439453 0 0 0
9844 1 2 0 89.53481359563858 11.444816963312498 -2.1737347808146015 0 0 0
6974 1 1 0 93.4297622802232 12.091935817639662 -1.6253838704693684 0 0 0
9859 1 2 0 91.92588187607909 12.51293022860373 -2.1262686227186465 0 0 0
9857 1 2 0 94.11458945438902 10.689977544034607 -2.1496981861848123 0 0 0
9867 1 2 0 98.03022993605374 11.500936662638901 -2.1339748152451676 0 0 0
6724 1 1 0 6.644842808102167 13.865372980340531 -1.6263087275626746 0 0 0
9398 1 2 0 5.51101325490056 12.667582433440609 -1.9539939355643012 0 0 0
9468 1 2 0 8.26810291342562 13.690857728414588 -2.0902294690493424 0 0 0
6729 1 1 0 9.897977557290409 13.719178206968406 -1.623454094432957 0 0 0
9476 1 2 0 10.976271252836767 14.892780316626693 -2.1318451013914776 0 0 0
6871 1 1 0 15.995038550148877 13.833821758349881 -1.6002459243685427 0 0 0
9693 1 2 0 17.509599334067317 14.048593462836868 -2.117422313392794 0 0 0
6878 1 1 0 18.964504446205428 14.537352080398962 -1.6511565769138177 0 0 0
9702 1 2 0 19.954493839175004 13.365004489168003 -2.157717500744246 0 0 0
9714 1 2 0 23.04418313965288 14.129434434267456 -1.809117730636961 0 0 0
6884 1 1 0 23.66424202897872 12.65052040150798 -1.574285461607426 0 0 0
9712 1 2 0 25.164111181907593 12.671099803634132 -2.1728079894891152 0 0 0
6883 1 1 0 26.678212445232713 12.729577004838161 -1.5954504796659486 0 0 0
9713 1 2 0 27.69123547203208 13.86290112617213 -2.1508194836059835 0 0 0
9723 1 2 0 33.5292290682518 12.626117586816957 -2.1175646205255614 0 0 0
6891 1 1 0 33.74329622699358 14.204384900829217 -1.6171983016991365 0 0 0
9739 1 2 0 39.180891319648445 13.245193307672018 -2.119423320987528 0 0 0
6902 1 1 0 38.83804228646247 14.752638567383803 -1.6225373492122814 0 0 0
9751 1 2 0 43.88358243641017 13.153312625230152 -2.035865855738252 0 0 0
6908 1 1 0 43.99083874755495 14.73163257865607 -1.593190879035309 0 0 0
9753 1 2 0 49.215091712967464 14.616986081198274 -2.0541561756422633 0 0 0
6907 1 1 0 49.521042173018984 12.949565345051948 -1.6098670925475045 0 0 0
9754 1 2 0 51.142445428351 12.89047947248664 -1.9167503750243897 0 0 0
6920 1 1 0 52.579699246951805 13.599923410432476 -1.6061745866487696 0 0 0
9772 1 2 0 53.997600898797494 12.980135742421874 -2.168670124534293 0 0 0
9773 1 2 0 56.841573130607465 13.112657087665504 -2.134804382911638 0 0 0
6925 1 1 0 58.058824366933074 14.089889601666435 -1.6146850431427568 0 0 0
9783 1 2 0 59.62791278491409 14.097074026586839 -2.102615341942292 0 0 0
6926 1 1 0 61.089259642359295 14.683519515565756 -1.625326363800553 0 0 0
9781 1 2 0 62.38990581999723 13.79608753473251 -2.0660045936002116 0 0 0
6934 1 1 0 66.38809805036821 12.674485309720657 -1.6282560314090535 0 0 0
9798 1 2 0 66.83093042768613 14.173268565400171 -2.1561548118703358 0 0 0
9817 1 2 0 73.30533075726146 14.160489300386475 -2.1466986075075796 0 0 0
6946 1 1 0 73.86645507181598 12.710736347499925 -1.6485380323024574 0 0 0
9816 1 2 0 75.45327362225356 12.929373372061818 -2.0959921191476183 0 0 0
6947 1 1 0 76.97907560035698 13.371470119507189 -1.5864004015889859 0 0 0
9818 1 2 0 78.28302494688728 14.265958406478031 -2.1375459447518312 0 0 0
9839 1 2 0 84.59539541746402 13.17052778773736 -2.12533866173559 0 0 0
7016 1 1 0 85.27965055883215 14.566367117558983 -1.6337764538470327 0 0 0
9923 1 2 0 86.82098888671081 14.801030911133767 -2.1629327918403987 0 0 0
9860 1 2 0 89.52658744340472 14.04108288446145 -2.047392113401534 0 0 0
6973 1 1 0 90.37913187342876 12.714840767893614 -1.6260503867273828 0 0 0
7021 1 1 0 95.2160282727101 14.65940736205972 -1.6045176885571104 0 0 0
9861 1 2 0 94.41509987075173 13.307682061416985 -2.0433258786772477 0 0 0
6982 1 1 0 98.02489434565442 13.082821290517767 -1.645375621033346 0 0 0
9873 1 2 0 96.75535494850433 14.106132665551154 -2.044459882644392 0 0 0
9872 1 2 0 99.53884130906083 13.50005761719536 -2.154870753119127 0 0 0
6983 1 1 0 100.97011855591771 14.141091441828898 -1.6390855779856885 0 0 0
9411 1 2 0 102.43083865152383 13.424617497445912 -2.0435245736330985 0 0 0
9467 1 2 0 5.924779257064862 15.28274976674336 -2.1370087235182407 0 0 0
6872 1 1 0 12.166050226010196 15.929459472459442 -1.6022961129222062 0 0 0
9695 1 2 0 11.60247507097205 17.417710245362105 -1.937649910246811 0 0 0
9694 1 2 0 13.690099497673755 16.440286213871133 -2.125338404760026 0 0 0
6873 1 1 0 15.253157927563603 16.875053551156395 -1.6167135636952976 0 0 0
9692 1 2 0 15.525374481319826 15.318162336291987 -2.110715157309969 0 0 0
9704 1 2 0 19.464602599113658 16.002550552214903 -2.129210601344883 0 0 0
6989 1 1 0 20.54041218109292 17.104482028772114 -1.6219533899366712 0 0 0
9881 1 2 0 21.99563238779725 16.56145766194798 -2.098640909459555 0 0 0
6988 1 1 0 23.262887592873753 15.7001376369419 -1.5839639903609022 0 0 0
9882 1 2 0 24.72074270260937 16.122829601403176 -2.137708523069084 0 0 0
6993 1 1 0 25.98023501162636 17.000968065975403 -1.6174118635726733 0 0 0
9728 1 2 0 27.44567442449167 16.44279011585267 -1.968446835985458 0 0 0
6892 1 1 0 28.430120319165884 15.206957043009485 -1.6207181693371353 0 0 0
9727 1 2 0 29.91299739995454 15.537894206986135 -2.1571012217222116 0 0 0
6893 1 1 0 31.302456702893828 16.179463795801425 -1.6252600220733977 0 0 0
9725 1 2 0 32.46074990145116 15.120616535699583 -2.0479450222452806 0 0 0
6901 1 1 0 36.15913037781842 16.22877203606602 -1.6185360686172718 0 0 0
9726 1 2 0 34.92875138139485 15.244025671443408 -2.14583840103952 0 0 0
9742 1 2 0 37.39945140541522 15.2980645103715 -2.0975840343616445 0 0 0
9744 1 2 0 39.97210027801345 15.831970364626645 -2.0525637029123613 0 0 0
6999 1 1 0 41.401679138315345 16.446326174734786 -1.5944008234123574 0 0 0
9756 1 2 0 42.50058943027214 15.29849168867573 -1.89066139107907 0 0 0
9755 1 2 0 44.98816570607919 15.903984175626766 -2.162120520930469 0 0 0
6910 1 1 0 45.961275405012344 17.120050623252418 -1.6246064063332823 0 0 0
9757 1 2 0 47.43687741007994 16.56632005715458 -2.031056565189321 0 0 0
6909 1 1 0 48.99730211020935 16.297203603622357 -1.6041632005888018 0 0 0
9775 1 2 0 52.5858743041797 15.178626722085514 -2.000276643087144 0 0 0
7002 1 1 0 53.37396183569737 16.537168332130417 -1.592766120266834 0 0 0
9901 1 2 0 54.936586292590114 16.235006779666033 -1.8877200688411417 0 0 0
7005 1 1 0 56.44922006694998 16.706425399542756 -1.5877984739717046 0 0 0
9784 1 2 0 57.521755898944434 15.57340593779208 -2.00656454355474 0 0 0
9785 1 2 0 61.26181303054675 16.264440203135756 -1.9972818747553573 0 0 0
9907 1 2 0 66.15098579798196 16.831368533430176 -2.093792123590355 0 0 0
7006 1 1 0 67.22968218282239 15.684635511804439 -1.6408787290219689 0 0 0
9906 1 2 0 68.70936261952781 16.17715673030242 -2.1459704144543883 0 0 0
7008 1 1 0 70.10978652772795 16.823958255850343 -1.6047674900895108 0 0 0
9908 1 2 0 71.39191640009126 15.879947834563971 -1.8908423406379717 0 0 0
7007 1 1 0 72.97290883022377 15.65832092271742 -1.607412635902593 0 0 0
9909 1 2 0 73.95460191536341 16.854402477655317 -2.1613533861229888 0 0 0
9960 1 2 0 76.66231141507949 17.501691957020874 -2.0986796670875294 0 0 0
9925 1 2 0 79.16495082881147 16.591125649196805 -2.03772942847968 0 0 0
7017 1 1 0 79.63045056740332 15.097369621722008 -1.606387024352222 0 0 0
9924 1 2 0 81.24152563119907 15.240723847303009 -1.993287252075854 0 0 0
7018 1 1 0 82.60073337231158 16.116150408308183 -1.6367686599331983 0 0 0
9922 1 2 0 84.04006092309942 15.51377440272548 -2.128427711464589 0 0 0
7020 1 1 0 88.35224757244453 15.100836788937583 -1.6230373449634132 0 0 0
9928 1 2 0 88.91630302927243 16.561980011229355 -2.0677676267198355 0 0 0
7049 1 1 0 93.02382343086504 17.054048793487187 -1.6107224353570413 0 0 0
9966 1 2 0 91.42944446041824 17.42432675066479 -2.0760793418770436 0 0 0
9929 1 2 0 94.1232734539743 15.856861722476232 -2.1057187568637667 0 0 0
9874 1 2 0 100.61158107371752 15.684315985666906 -2.1236848165676716 0 0 0
7052 1 1 0 100.11826450443908 17.174088715005176 -1.6053544738635561 0 0 0
9471 1 2 0 5.6389679032917766 18.064435997711406 -1.9196799399925537 0 0 0
6779 1 1 0 5.423941208164857 19.664562820525056 -1.6173003386554712 0 0 0
7023 1 1 0 11.939384918207125 18.947519221751886 -1.5774837107734756 0 0 0
9930 1 2 0 13.500354771181682 19.316757494029552 -1.7962896230023289 0 0 0
9696 1 2 0 16.45223902838861 17.99426061975778 -2.06726193995806 0 0 0
7024 1 1 0 17.382883841762432 19.378677248252913 -1.6025858832447613 0 0 0
9883 1 2 0 20.50231277807968 18.683719010268113 -1.939474230052739 0 0 0
9937 1 2 0 22.87685651392452 19.704124083316493 -2.181576266617005 0 0 0
7028 1 1 0 24.39599061576048 19.58521866591978 -1.6117249431984901 0 0 0
9887 1 2 0 25.457290501028286 18.45781505039581 -2.0785829829311346 0 0 0
9729 1 2 0 31.391597871169626 17.731121574382485 -2.142347924532445 0 0 0
6994 1 1 0 31.31111483912428 19.293904258480918 -1.641493918241988 0 0 0
9888 1 2 0 32.73507691934035 19.96207546427619 -2.092496962597613 0 0 0
9890 1 2 0 35.52065421156506 19.898014074148293 -2.1452206767592052 0 0 0
9743 1 2 0 36.68629297414289 17.73783235062127 -2.0876917598599554 0 0 0
6995 1 1 0 36.962962270915966 19.319073433489052 -1.642280124191479 0 0 0
9896 1 2 0 41.85110629765128 17.909076595573612 -2.1610375553817973 0 0 0
7034 1 1 0 42.105408857579114 19.42648570103344 -1.602909015369511 0 0 0
9759 1 2 0 45.7056395377847 18.68007664832486 -2.112532364816311 0 0 0
9758 1 2 0 49.420822371351406 17.94705635397601 -2.0112537485009714 0 0 0
7004 1 1 0 49.59803889941933 19.63135757418802 -1.5838726248889046 0 0 0
9902 1 2 0 51.17062520802254 19.846451482088373 -1.993443112892535 0 0 0
7003 1 1 0 52.706146829465325 19.517052706427013 -1.626672975210939 0 0 0
9900 1 2 0 53.005389663219745 18.01039099389389 -2.1750562528558306 0 0 0
9905 1 2 0 56.71382958244346 18.20097830065184 -2.155409298451499 0 0 0
7041 1 1 0 57.25276853117897 19.63081545277999 -1.615318452262772 0 0 0
9956 1 2 0 58.7574707762816 19.8220993880624 -2.16646416244253 0 0 0
9954 1 2 0 61.2896646233019 19.033079424209625 -2.1191942625510065 0 0 0
7040 1 1 0 62.027043617864365 17.655943852046406 -1.622951810322078 0 0 0
9955 1 2 0 63.57364557271687 17.61405600984282 -2.1317730408832505 0 0 0
7043 1 1 0 65.08230409849585 17.980637345484467 -1.6393638312356733 0 0 0
9959 1 2 0 65.3598698051728 19.514712524571213 -2.1511574353835834 0 0 0
9910 1 2 0 70.5262659923964 18.310337806796944 -2.1417252897617645 0 0 0
7066 1 1 0 70.71675381085652 19.833627226507303 -1.5904718324009515 0 0 0
7044 1 1 0 75.14241259323752 17.85918677858381 -1.64282708301679 0 0 0
9961 1 2 0 75.2641492670989 19.427277031153103 -2.109648883644629 0 0 0
7045 1 1 0 78.18384692455538 17.79230082758094 -1.6153950445228173 0 0 0
9962 1 2 0 78.7942803102742 19.23689276978772 -2.0238302695591 0 0 0
10014 1 2 0 81.38549434823129 19.957921358758796 -2.1277965375061854 0 0 0
9926 1 2 0 82.64493945184124 17.66657166050772 -2.1746668878021764 0 0 0
7080 1 1 0 82.73804303894958 19.210006505620488 -1.6328525532294416 0 0 0
9967 1 2 0 88.82959069396992 19.1147888827746 -2.110584730645528 0 0 0
7048 1 1 0 89.842002270177 17.839143261542176 -1.629531043645088 0 0 0
9968 1 2 0 93.84293239706554 18.407384864084673 -2.034903683514055 0 0 0
7084 1 1 0 94.68561908334779 19.73756823088912 -1.6114425274545507 0 0 0
7085 1 1 0 97.79716294806086 19.283436344520492 -1.6259380380087571 0 0 0
10019 1 2 0 96.24213046959171 19.527975617059774 -2.1551110148167494 0 0 0
9972 1 2 0 98.7397155385564 17.984352517961096 -2.0542137343929108 0 0 0
6754 1 1 0 102.96694994420102 18.445563511349032 -1.5987687296050517 0 0 0
9515 1 2 0 101.43054971689276 18.06831447219666 -1.9835539955661727 0 0 0
9553 1 2 0 6.479149166882384 20.787152042790883 -2.174408822869831 0 0 0
6820 1 1 0 7.444967781253546 21.983605551604235 -1.6188620671438525 0 0 0
9616 1 2 0 8.952578847039582 21.802157645548995 -2.1700969562562413 0 0 0
6823 1 1 0 10.440910074382117 21.565918556603908 -1.6081239483856198 0 0 0
9621 1 2 0 11.050904587242513 20.16767800694414 -2.15422447290704 0 0 0
7025 1 1 0 14.559772505695259 20.518198926545267 -1.5810449807222953 0 0 0
9623 1 2 0 13.946766373724339 21.893504835312587 -2.1513857789109294 0 0 0
9931 1 2 0 16.039354711531203 20.177376778702953 -2.0798922437272647 0 0 0
9932 1 2 0 18.252991301900195 20.774221719935536 -2.092222178206452 0 0 0
7054 1 1 0 19.1795231668194 22.11529689033459 -1.5894029073652587 0 0 0
7053 1 1 0 21.385032362805205 19.99460635626383 -1.5979461183460437 0 0 0
9973 1 2 0 20.60648365039661 21.378646144369224 -1.8918069751315207 0 0 0
9936 1 2 0 25.008583362619106 20.989439909879742 -2.0501294525113667 0 0 0
7030 1 1 0 25.876415833030126 22.266874504698848 -1.592251371022054 0 0 0
9938 1 2 0 27.273731185141944 21.559201250188504 -2.1296399944295286 0 0 0
7029 1 1 0 28.795751477905707 21.15260225625246 -1.5869429947672327 0 0 0
9889 1 2 0 29.99725072588482 20.169421447625986 -2.146352353525262 0 0 0
6996 1 1 0 34.15614366181185 20.61529753818919 -1.634097697991405 0 0 0
9892 1 2 0 34.30074239195236 22.13606529612509 -2.1764050004944675 0 0 0
9891 1 2 0 38.22973287438005 20.30637962407855 -2.1347397300806263 0 0 0
7061 1 1 0 39.54446321703706 21.223745316808586 -1.6197235923682864 0 0 0
9946 1 2 0 40.846380250147305 20.340701531919844 -2.0642603681656277 0 0 0
9945 1 2 0 43.54548137596731 20.1134600557823 -1.9459227197606488 0 0 0
7035 1 1 0 45.14895008849302 20.161350958148244 -1.6112087754412345 0 0 0
9947 1 2 0 45.81178874445541 21.60455874111521 -2.115638979651612 0 0 0
9904 1 2 0 49.46825548879633 21.319958529135125 -2.0267994126047975 0 0 0
9903 1 2 0 53.71915124177272 20.68738762014456 -2.14030263205961 0 0 0
7063 1 1 0 54.91746881309886 21.658902507405262 -1.6026797113315039 0 0 0
9957 1 2 0 56.31716214214992 20.910667807909814 -1.9379985604715322 0 0 0
7042 1 1 0 60.24172880861993 20.192540798684284 -1.6385845224129643 0 0 0
9958 1 2 0 60.3598042745235 21.750952122839532 -2.111040251734412 0 0 0
9993 1 2 0 64.22463456134426 22.061703333010687 -2.0251538449384117 0 0 0
7067 1 1 0 65.46729999514505 21.06878186087423 -1.6367306200558838 0 0 0
9992 1 2 0 66.89992067314526 21.674780924063736 -2.1340379040499973 0 0 0
7068 1 1 0 68.4223750289504 21.87742406446212 -1.5954988711990152 0 0 0
9990 1 2 0 69.26857099051998 20.52117152192688 -1.8074576796743511 0 0 0
9991 1 2 0 71.82398249779654 20.904119132263244 -2.1517920480733475 0 0 0
7070 1 1 0 72.83834094867036 22.075946603675188 -1.6192577108754127 0 0 0
9995 1 2 0 74.35163666013952 21.711546509482194 -2.02158310702394 0 0 0
7069 1 1 0 75.69321119391036 20.92931920545179 -1.6052306334306126 0 0 0
9996 1 2 0 76.89619207477314 21.90640633314503 -2.158838055386453 0 0 0
10049 1 2 0 79.40749513169506 21.846959816405835 -1.8515162755886618 0 0 0
7104 1 1 0 79.90683103259684 20.33705385483661 -1.5884659785632325 0 0 0
10013 1 2 0 84.01523476045438 20.15205816502711 -1.9936936245381858 0 0 0
7082 1 1 0 84.79479360782067 21.54925166919074 -1.611939633072754 0 0 0
10015 1 2 0 86.38052044580927 21.085546970215933 -2.08108446861299 0 0 0
7081 1 1 0 87.88365488336528 20.43448878053663 -1.5971198766236825 0 0 0
10016 1 2 0 89.0509126828324 21.53909719363685 -1.9398441146437653 0 0 0
10020 1 2 0 93.7727496078056 21.045555621980533 -2.0521130689017055 0 0 0
10021 1 2 0 98.65831299450461 20.601900888556074 -2.053505158913931 0 0 0
7111 1 1 0 99.59575325017991 21.857470566389992 -1.6233941945971553 0 0 0
9514 1 2 0 103.18685182899125 20.007320514977266 -1.9461182081658037 0 0 0
6755 1 1 0 102.64327543788528 21.494729998921894 -1.6118941322264646 0 0 0
9516 1 2 0 101.12538236316962 21.697661766655614 -2.149504432418873 0 0 0
9613 1 2 0 7.0997513634969875 23.542674477062896 -1.9293541663568827 0 0 0
9620 1 2 0 11.503438643864483 22.76953579059345 -1.8368694014968006 0 0 0
6824 1 1 0 13.067674841943175 23.126284115993972 -1.600192860002833 0 0 0
9622 1 2 0 13.61093853339332 24.551243732404608 -2.107519259358481 0 0 0
9974 1 2 0 19.479938286329872 23.736095118859797 -1.9688497650471333 0 0 0
10026 1 2 0 22.01639920665012 24.6275089807612 -2.1376373348655617 0 0 0
7088 1 1 0 23.550589955752088 24.353191438153814 -1.5856309142654847 0 0 0
9940 1 2 0 24.683689469348163 23.28155238867422 -2.1367774670002837 0 0 0
9939 1 2 0 28.87922824334782 22.745115437100555 -2.0042304394529262 0 0 0
7087 1 1 0 28.540944649729127 24.301028056628283 -1.6149104558205127 0 0 0
10024 1 2 0 30.007264315270692 24.73522357074423 -2.176026715369821 0 0 0
10029 1 2 0 32.796634320313956 24.222717445419967 -2.1243377407022344 0 0 0
7091 1 1 0 34.232154903132255 23.654113421043434 -1.6249656511042991 0 0 0
10030 1 2 0 35.47420744617328 24.627387002294387 -2.0050909538301447 0 0 0
9984 1 2 0 40.11887972929452 22.72443708790636 -2.1190075690699954 0 0 0
7097 1 1 0 40.92471914508898 24.109436284059004 -1.6157979976658525 0 0 0
10039 1 2 0 42.53068902708351 24.424779174464295 -1.9236489581680523 0 0 0
10037 1 2 0 45.21679081114098 24.359142177817986 -2.0865914888007357 0 0 0
7096 1 1 0 46.26834261277537 23.13463388969203 -1.6201337719870386 0 0 0
10038 1 2 0 47.88912734243231 23.42575064442338 -1.9043515114808538 0 0 0
7099 1 1 0 49.48604903524389 22.996257446257854 -1.6188427056014478 0 0 0
10042 1 2 0 50.68340225593886 24.20555941114895 -2.0715127197405394 0 0 0
9986 1 2 0 54.957822468978534 23.204015602963548 -2.1220363271530003 0 0 0
7118 1 1 0 55.00520710286862 24.768514575245973 -1.6287040125420873 0 0 0
10047 1 2 0 59.11160398546268 24.306210489703865 -2.029670883423202 0 0 0
7102 1 1 0 60.37218267327811 23.3156591993473 -1.616616801928554 0 0 0
10046 1 2 0 61.908162609646816 23.62272802607328 -2.1115511249231154 0 0 0
7103 1 1 0 63.46652145648735 23.4599275412654 -1.6366186014248123 0 0 0
10048 1 2 0 64.23686144043882 24.802214825475463 -2.149392429396446 0 0 0
9994 1 2 0 69.27936829179691 23.158927772134593 -2.120695130103181 0 0 0
7123 1 1 0 69.69372482563777 24.648567482572407 -1.6124036922442484 0 0 0
9997 1 2 0 72.83073673852532 23.620260931312412 -2.1587486193957934 0 0 0
7105 1 1 0 78.14030009723317 22.82145117090778 -1.5861525295582244 0 0 0
10050 1 2 0 78.55651960295826 24.351531030842448 -1.986591253244285 0 0 0
10092 1 2 0 81.1286896750917 24.852890024500528 -2.0753021717595193 0 0 0
7134 1 1 0 82.62392988535898 24.09886634337718 -1.6125618891885425 0 0 0
10017 1 2 0 83.64009620923458 22.760214270497123 -2.042477483671937 0 0 0
10053 1 2 0 88.8822881091397 24.114932907719663 -2.130186352095584 0 0 0
7107 1 1 0 89.88475897837802 22.902297673985643 -1.6045193358307388 0 0 0
10052 1 2 0 91.45642550432014 22.71565657180584 -2.125413102130713 0 0 0
7108 1 1 0 93.02937448473197 22.46477415107314 -1.6363872079353745 0 0 0
10054 1 2 0 94.05355254858355 23.64063111939542 -2.161066084037241 0 0 0
7137 1 1 0 95.11293413481883 24.775390785595395 -1.6315512477094876 0 0 0
7138 1 1 0 98.23820875057862 24.598660878663914 -1.6331195573921242 0 0 0
10096 1 2 0 96.67053381289067 24.598599482402562 -2.0967668038800613 0 0 0
10058 1 2 0 98.93834210941989 23.23589641771193 -2.1724155673833687 0 0 0
9614 1 2 0 6.089024602596291 25.845176078359156 -2.144921671063688 0 0 0
6819 1 1 0 7.472081893688786 25.107748327727535 -1.614810774043809 0 0 0
9615 1 2 0 8.990839387194729 25.598887034631247 -2.117232110496938 0 0 0
9618 1 2 0 12.018779236865742 26.214053535244236 -2.139321914129966 0 0 0
6822 1 1 0 10.438715102015461 26.242122418748327 -1.5827885736961398 0 0 0
6825 1 1 0 13.611494249050462 26.105279441528285 -1.6451198499149742 0 0 0
9624 1 2 0 14.99870112935737 26.860988227695096 -2.1481370097906156 0 0 0
7112 1 1 0 20.48301118249615 25.051656821914666 -1.6411101726616817 0 0 0
10059 1 2 0 20.074662559899775 26.63229877473912 -2.102529054470629 0 0 0
10025 1 2 0 24.529922584289263 25.63358863420456 -1.7981936511543763 0 0 0
7089 1 1 0 26.05130852607601 26.17245804455234 -1.5980318388099208 0 0 0