ITEM: TIMESTEP
1163
ITEM: NUMBER OF ATOMS
15336
ITEM: BOX BOUNDS pp pp pp
0.0000000000000000e+00 2.0201768440291636e+02
0.0000000000000000e+00 1.7677489263698740e+02
-1.0000000000000000e+02 1.0000000000000000e+02
ITEM: ATOMS id type element x y z v_uncoordination
1 1 Si 193.367 48.0745 1.63652 0
2 1 Si 190.207 47.392 1.62055 0
3 1 Si 195.948 46.1271 1.62996 0
4 1 Si 189.155 44.2626 1.64004 0
5 1 Si 191.642 42.1448 1.60924 0
6 1 Si 194.701 43.1667 1.62312 0
7 1 Si 194.005 51.198 1.63256 0
8 1 Si 189.178 50.5226 1.6244 0
9 1 Si 191.401 52.9978 1.61889 0
10 1 Si 199.125 47.1827 1.64201 0
11 1 Si 199.445 50.4567 1.62833 0
12 1 Si 196.906 52.4873 1.65005 0
13 1 Si 186.177 51.5838 1.62678 0
14 1 Si 183.739 48.8892 1.62386 0
15 1 Si 186.078 43.0697 1.61196 0
16 1 Si 183.247 45.2759 1.65286 0
17 1 Si 186.784 55.2838 1.6291 0
18 1 Si 180.979 50.7169 1.64552 0
19 1 Si 181.273 54.0767 1.6224 0
20 1 Si 183.755 56.3388 1.62464 0
21 1 Si 191.922 56.2947 1.64175 0
22 1 Si 189.274 58.1263 1.62693 0
23 1 Si 106.545 4.37402 1.61868 0
24 1 Si 109.761 4.09304 1.63685 0
25 1 Si 105.94 7.61413 1.61775 0
26 1 Si 111.072 7.0191 1.62807 0
27 1 Si 108.735 9.29165 1.61126 0
28 1 Si 104.915 1.54773 1.64016 0
29 1 Si 111.611 1.42948 1.62606 0
30 1 Si 106.822 175.602 1.62862 0
31 1 Si 110.098 175.316 1.63422 0
32 1 Si 103.041 9.04212 1.62225 0
33 1 Si 100.49 6.96955 1.61825 0
34 1 Si 99.4815 3.85352 1.64334 0
35 1 Si 101.613 1.36071 1.62756 0
36 1 Si 116.437 4.7477 1.6455 0
37 1 Si 114.314 7.35989 1.63008 0
38 1 Si 114.9 1.8048 1.61886 0
39 1 Si 119.821 5.1457 1.63182 0
40 1 Si 120.569 8.262 1.62037 0
41 1 Si 115.188 10.5661 1.643 0
42 1 Si 118.528 10.8619 1.62618 0
43 1 Si 122.86 3.51538 1.62077 0
44 1 Si 122.763 0.390269 1.62363 0
45 1 Si 116.619 175.857 1.63178 0
46 1 Si 119.861 175.731 1.60628 0
47 1 Si 126.311 3.76392 1.61755 0
48 1 Si 126.55 6.83277 1.6206 0
49 1 Si 123.752 8.396 1.62968 0
50 1 Si 129.425 2.39652 1.61965 0
51 1 Si 132.579 3.50269 1.61968 0
52 1 Si 132.48 6.7812 1.624 0
53 1 Si 129.509 8.09152 1.61749 0
54 1 Si 128.918 175.996 1.63755 0
55 1 Si 135.403 1.69075 1.62377 0
56 1 Si 131.579 173.923 1.63926 0
57 1 Si 134.884 175.045 1.64159 0
58 1 Si 125.621 175.507 1.62843 0
59 1 Si 138.11 7.16507 1.61966 0
60 1 Si 138.137 3.78418 1.62383 0
61 1 Si 135.151 8.58636 1.61934 0
62 1 Si 143.905 4.31434 1.61055 0
63 1 Si 141.129 2.61225 1.62237 0
64 1 Si 145.432 7.29887 1.6273 0
65 1 Si 140.288 9.71539 1.64538 0
66 1 Si 143.664 10.1162 1.63197 0
67 1 Si 144.823 1.23686 1.60786 0
68 1 Si 142.115 176.281 1.62352 0
69 1 Si 149.606 4.13623 1.62461 0
70 1 Si 147.96 1.01855 1.6223 0
71 1 Si 148.802 7.55217 1.6142 0
72 1 Si 152.741 3.43913 1.61941 0
73 1 Si 153.694 0.346283 1.6129 0
74 1 Si 157.833 3.24443 1.61588 0
75 1 Si 155.338 5.34884 1.62249 0
76 1 Si 156.891 0.227764 1.62827 0
77 1 Si 148.708 174.497 1.61206 0
78 1 Si 151.969 174.463 1.62322 0
79 1 Si 160.982 3.76 1.64085 0
80 1 Si 161.214 6.9186 1.6295 0
81 1 Si 155.733 8.59572 1.63831 0
82 1 Si 158.877 9.05974 1.6355 0
83 1 Si 163.59 1.78114 1.6335 0
84 1 Si 164.462 175.398 1.61879 0
85 1 Si 161.948 173.633 1.62535 0
86 1 Si 158.971 174.631 1.61291 0
87 1 Si 166.282 3.38398 1.61412 0
88 1 Si 166.607 6.53613 1.62289 0
89 1 Si 164.042 8.33144 1.62613 0
90 1 Si 169.212 2.2614 1.62118 0
91 1 Si 171.45 4.54382 1.61622 0
92 1 Si 169.689 7.40314 1.63988 0
93 1 Si 169.795 175.976 1.61752 0
94 1 Si 167.348 173.897 1.61223 0
95 1 Si 174.536 3.1251 1.62377 0
96 1 Si 176.518 5.70578 1.62263 0
97 1 Si 175.904 9.14231 1.61965 0
98 1 Si 170.253 10.7152 1.61281 0
99 1 Si 173.416 11.6387 1.6122 0
100 1 Si 175.619 176.503 1.63734 0
101 1 Si 172.771 174.856 1.61551 0
102 1 Si 179.589 4.55585 1.60449 0
103 1 Si 180.722 7.5316 1.61563 0
104 1 Si 178.967 10.2289 1.62555 0
105 1 Si 181.969 2.31231 1.64747 0
106 1 Si 183.82 7.24625 1.63537 0
107 1 Si 184.637 4.13057 1.62906 0
108 1 Si 178.598 174.342 1.63836 0
109 1 Si 182.119 175.781 1.62624 0
110 1 Si 185.299 10.1021 1.62685 0
111 1 Si 180.354 13.2101 1.63105 0
112 1 Si 183.679 13.0054 1.60958 0
113 1 Si 189.553 6.43653 1.6204 0
114 1 Si 188.426 9.48016 1.62391 0
115 1 Si 187.799 3.68737 1.64032 0
116 1 Si 192.715 6.92063 1.62629 0
117 1 Si 193.523 10.0517 1.61508 0
118 1 Si 190.775 11.6778 1.62037 0
119 1 Si 194.824 4.48687 1.62643 0
120 1 Si 192.862 1.51565 1.63015 0
121 1 Si 189.058 0.729539 1.64758 0
122 1 Si 198.098 5.7786 1.6418 0
123 1 Si 199.113 9.0775 1.64118 0
124 1 Si 196.559 11.227 1.64395 0
125 1 Si 200.794 3.88247 1.62503 0
126 1 Si 201.372 0.694558 1.61929 0
127 1 Si 195.102 175.839 1.6205 0
128 1 Si 198.567 175.502 1.61839 0
129 1 Si 1.77238 5.0853 1.61253 0
130 1 Si 0.396491 10.152 1.6358 0
131 1 Si 2.79032 8.03354 1.6298 0
132 1 Si 4.49818 3.41013 1.61166 0
133 1 Si 2.82142 0.586795 1.62176 0
134 1 Si 102.281 12.3306 1.6304 0
135 1 Si 99.0491 12.2064 1.60357 0
136 1 Si 98.2138 9.15967 1.62656 0
137 1 Si 109.44 12.4461 1.62841 0
138 1 Si 112.715 12.9299 1.61215 0
139 1 Si 125.177 11.1312 1.62762 0
140 1 Si 120.198 13.7045 1.63732 0
141 1 Si 123.547 13.7687 1.63518 0
142 1 Si 128.34 10.9831 1.63633 0
143 1 Si 135.264 11.8455 1.62002 0
144 1 Si 138.486 12.4381 1.62594 0
145 1 Si 150.499 10.7969 1.64055 0
146 1 Si 153.888 11.3975 1.63318 0
147 1 Si 163.38 11.3913 1.61301 0
148 1 Si 168.236 13.5521 1.61431 0
149 1 Si 164.881 14.1244 1.62766 0
150 1 Si 103.923 15.271 1.63739 0
151 1 Si 107.31 15.0131 1.62006 0
152 1 Si 112.462 16.2045 1.62137 0
153 1 Si 118.376 16.3943 1.61592 0
154 1 Si 115.329 17.6411 1.60968 0
155 1 Si 129.657 13.8054 1.62949 0
156 1 Si 132.926 14.185 1.64223 0
157 1 Si 145.321 13.1654 1.63033 0
158 1 Si 139.883 15.3805 1.6375 0
159 1 Si 143.272 15.8341 1.64127 0
160 1 Si 148.748 13.7611 1.64527 0
161 1 Si 160.252 11.8572 1.61639 0
162 1 Si 155.497 14.5547 1.63406 0
163 1 Si 158.91 14.6946 1.62677 0
164 1 Si 173.038 15.1286 1.6157 0
165 1 Si 169.872 16.4528 1.61206 0
166 1 Si 178.742 16.1542 1.61294 0
167 1 Si 175.594 17.259 1.62687 0
168 1 Si 190.69 14.8327 1.63319 0
169 1 Si 185.039 15.9173 1.625 0
170 1 Si 188.105 16.5137 1.63017 0
171 1 Si 196.946 14.467 1.62794 0
172 1 Si 192.542 17.4028 1.62954 0
173 1 Si 195.582 17.4185 1.61934 0
174 1 Si 2.32667 12.9038 1.62205 0
175 1 Si 199.647 16.0599 1.61244 0
176 1 Si 0.742393 15.6407 1.63084 0
177 1 Si 102.287 18.3613 1.63032 0
178 1 Si 98.689 19.0023 1.61439 0
179 1 Si 96.0707 13.551 1.62828 0
180 1 Si 95.8848 16.7813 1.61626 0
181 1 Si 109.397 17.488 1.60532 0
182 1 Si 126.603 15.0572 1.62118 0
183 1 Si 134.138 17.2219 1.62572 0
184 1 Si 137.489 17.6936 1.63413 0
185 1 Si 150.265 17.0327 1.63458 0
186 1 Si 153.764 17.5456 1.62876 0
187 1 Si 162.007 16.0981 1.61887 0
188 1 Si 161.889 19.3663 1.62355 0
189 1 Si 168.308 19.6302 1.63577 0
190 1 Si 165.037 20.6835 1.60982 0
191 1 Si 180.457 18.9296 1.61642 0
192 1 Si 183.637 18.8135 1.61829 0
193 1 Si 6.03087 8.00852 1.62019 0
194 1 Si 7.69895 10.6621 1.61814 0
195 1 Si 5.6497 13.1593 1.60459 0
196 1 Si 108.256 20.5397 1.62594 0
197 1 Si 104.517 21.0427 1.64111 0
198 1 Si 120.205 18.9652 1.61656 0
199 1 Si 115.105 20.8672 1.6016 0
200 1 Si 118.382 21.6017 1.62992 0
201 1 Si 126.153 18.1026 1.62714 0
202 1 Si 123.295 19.4126 1.61427 0
203 1 Si 128.612 20.0786 1.61543 0
204 1 Si 131.826 19.576 1.64504 0
205 1 Si 144.653 18.9264 1.6274 0
206 1 Si 138.822 20.688 1.62609 0
207 1 Si 142.182 21.2332 1.62641 0
208 1 Si 148.086 19.7612 1.63999 0
209 1 Si 155.491 20.6932 1.62844 0
210 1 Si 158.877 21.0646 1.61975 0
211 1 Si 175.491 20.6237 1.60975 0
212 1 Si 169.946 22.5569 1.62138 0
213 1 Si 173.206 23.0576 1.63645 0
214 1 Si 178.638 21.5882 1.61961 0
215 1 Si 188.778 19.549 1.61517 0
216 1 Si 186.004 20.9671 1.62457 0
217 1 Si 191.713 20.4486 1.6431 0
218 1 Si 199.308 19.222 1.63008 0
219 1 Si 196.532 20.5709 1.62067 0
220 1 Si 201.904 20.9354 1.60115 0
221 1 Si 1.98267 18.568 1.60965 0
222 1 Si 111.665 21.4877 1.61222 0
223 1 Si 123.723 22.5172 1.60316 0
224 1 Si 126.863 22.8215 1.62786 0
225 1 Si 133.095 22.4258 1.62715 0
226 1 Si 136.301 22.7665 1.63335 0
227 1 Si 149.123 23.2001 1.62325 0
228 1 Si 151.738 25.615 1.62392 0
229 1 Si 154.607 24.0248 1.62653 0
230 1 Si 164.993 23.9854 1.61398 0
231 1 Si 167.989 25.2582 1.62558 0
232 1 Si 179.95 24.6059 1.63603 0
233 1 Si 186.462 24.0925 1.61915 0
234 1 Si 183.308 25.4058 1.62669 0
235 1 Si 102.817 24.1148 1.62811 0
236 1 Si 99.4455 25.2888 1.60299 0
237 1 Si 97.6911 22.3737 1.61039 0
238 1 Si 112.159 24.4909 1.65231 0
239 1 Si 110.072 26.6864 1.60204 0
240 1 Si 104.826 26.6447 1.60575 0
241 1 Si 107.567 28.3136 1.62895 0
242 1 Si 120.808 23.8185 1.63541 0
243 1 Si 114.819 26.1247 1.60215 0
244 1 Si 120.763 27.0173 1.61585 0
245 1 Si 117.603 27.6427 1.63499 0
246 1 Si 128.072 25.7641 1.63522 0
247 1 Si 131.155 24.9595 1.62334 0
248 1 Si 143.443 24.236 1.62521 0
249 1 Si 136.242 25.892 1.63206 0
250 1 Si 141.82 26.9688 1.62199 0
251 1 Si 138.783 27.6557 1.63347 0
252 1 Si 146.558 25.1831 1.6144 0
253 1 Si 159.486 24.2295 1.61495 0
254 1 Si 162.319 25.783 1.63585 0
255 1 Si 174.278 26.2343 1.63864 0
256 1 Si 177.527 26.8709 1.62862 0
257 1 Si 192.619 23.4792 1.63937 0
258 1 Si 189.771 25.1681 1.62629 0
259 1 Si 195.862 23.8301 1.65977 0
260 1 Si 1.07368 23.9061 1.63705 0
261 1 Si 197.763 26.7621 1.61455 0
262 1 Si 201.409 26.7833 1.61322 0
263 1 Si 4.7305 20.0494 1.62545 0
264 1 Si 4.28284 23.2538 1.61644 0
265 1 Si 112.626 28.3156 1.6113 0
266 1 Si 123.356 29.2033 1.62116 0
267 1 Si 126.603 28.7367 1.61543 0
268 1 Si 133.325 27.1293 1.63124 0
269 1 Si 146.67 28.4219 1.63268 0
270 1 Si 151.846 29.3549 1.62647 0
271 1 Si 148.867 30.7817 1.63193 0
272 1 Si 157.063 26.2428 1.60384 0
273 1 Si 168.952 28.5168 1.62333 0
274 1 Si 161.988 29.0297 1.62071 0
275 1 Si 167.435 31.6345 1.62417 0
276 1 Si 164.103 31.674 1.62643 0
277 1 Si 172.232 28.8416 1.63797 0
278 1 Si 184.086 28.5287 1.63936 0
279 1 Si 178.623 29.9267 1.62695 0
280 1 Si 181.712 30.707 1.64341 0
281 1 Si 190.149 28.3808 1.60924 0
282 1 Si 187.138 29.5516 1.62274 0
283 1 Si 103.693 29.5635 1.62823 0
284 1 Si 100.875 30.8212 1.62066 0
285 1 Si 98.2674 28.8614 1.63932 0
286 1 Si 108.496 31.4162 1.63303 0
287 1 Si 105.54 32.1125 1.61808 0
288 1 Si 117.096 30.7362 1.60386 0
289 1 Si 114.018 30.9687 1.6351 0
290 1 Si 123.082 32.4906 1.60461 0
291 1 Si 117.847 33.806 1.63384 0
292 1 Si 120.8 34.794 1.61552 0
293 1 Si 127.597 31.8961 1.6157 0
294 1 Si 132.434 30.0794 1.60097 0
295 1 Si 130.599 32.6536 1.63508 0
296 1 Si 143.708 29.5191 1.6226 0
297 1 Si 158.676 29.1161 1.6299 0
298 1 Si 173.474 31.8557 1.6262 0
299 1 Si 176.631 32.3873 1.63986 0
300 1 Si 192.525 30.74 1.63414 0
301 1 Si 187.712 32.6342 1.61864 0
302 1 Si 190.682 33.6742 1.60848 0
303 1 Si 195.964 29.8757 1.62035 0
304 1 Si 198.074 32.4205 1.62032 0
305 1 Si 201.425 32.3082 1.61119 0
306 1 Si 1.46635 29.696 1.62732 0
307 1 Si 113.119 33.8635 1.61887 0
308 1 Si 110.072 34.1942 1.62917 0
309 1 Si 125.62 34.4601 1.58339 0
310 1 Si 138 30.6616 1.61513 0
311 1 Si 135.091 31.5602 1.63333 0
312 1 Si 142.868 32.5787 1.64466 0
313 1 Si 139.828 33.1334 1.62128 0
314 1 Si 153.926 32.2617 1.62396 0
315 1 Si 157.295 32.0317 1.61458 0
316 1 Si 172.188 34.8199 1.62753 0
317 1 Si 168.974 34.8153 1.61996 0
318 1 Si 123.98 60.6083 1.61696 0
319 1 Si 120.855 59.9941 1.62854 0
320 1 Si 126.874 59.3357 1.63977 0
321 1 Si 122.598 55.3025 1.61431 0
322 1 Si 125.886 56.1718 1.62477 0
323 1 Si 119.701 57.1431 1.61943 0
324 1 Si 123.629 63.6644 1.62498 0
325 1 Si 118.618 62.2553 1.62681 0
326 1 Si 120.675 64.5722 1.62923 0
327 1 Si 129.512 61.4376 1.64014 0
328 1 Si 128.806 64.6351 1.6249 0
329 1 Si 125.835 65.7592 1.61701 0
330 1 Si 182.544 33.739 1.61107 0
331 1 Si 185.481 34.7253 1.6095 0
332 1 Si 115.453 35.9366 1.61873 0
333 1 Si 124.718 37.5995 1.62724 0
334 1 Si 121.484 38.0069 1.60609 0
335 1 Si 131.741 35.6541 1.60908 0
336 1 Si 134.61 34.5512 1.62748 0
337 1 Si 147.968 34.0527 1.64133 0
338 1 Si 144.871 35.0362 1.62465 0
339 1 Si 152.917 35.6338 1.63012 0
340 1 Si 149.812 36.8222 1.64689 0
341 1 Si 159.426 34.6519 1.62836 0
342 1 Si 154.873 38.3272 1.63115 0
343 1 Si 158.02 37.5644 1.62138 0
344 1 Si 162.78 34.7599 1.62376 0
345 1 Si 177.274 35.4671 1.60442 0
346 1 Si 174.539 37.0204 1.61597 0
347 1 Si 182.021 36.7999 1.6298 0
348 1 Si 179.243 37.9466 1.62423 0
349 1 Si 189.629 37.0253 1.62167 0
350 1 Si 184.896 37.7647 1.60748 0
351 1 Si 187.216 39.7367 1.6251 0
352 1 Si 197.138 35.4933 1.62846 0
353 1 Si 195.038 37.8417 1.61318 0
354 1 Si 192.082 38.9364 1.62855 0
355 1 Si 0.446703 35.3811 1.63516 0
356 1 Si 199.847 37.1199 1.6313 0
357 1 Si 3.18138 37.0592 1.61528 0
358 1 Si 6.34858 36.2527 1.61684 0
359 1 Si 5.00643 30.4483 1.63067 0
360 1 Si 7.23072 33.1054 1.6242 0
361 1 Si 104.524 35.0903 1.64182 0
362 1 Si 101.56 33.9874 1.62781 0
363 1 Si 109.298 37.3087 1.62657 0
364 1 Si 106.16 37.8873 1.61776 0
365 1 Si 132.038 38.8582 1.63623 0
366 1 Si 126.481 40.2848 1.61157 0
367 1 Si 129.651 41.0002 1.61511 0
368 1 Si 137.605 35.2782 1.6218 0
369 1 Si 137.813 38.2758 1.61098 0
370 1 Si 143.785 38.0961 1.65315 0
371 1 Si 140.814 39.1567 1.62351 0
372 1 Si 164.491 37.6986 1.64374 0
373 1 Si 167.819 38.0085 1.62708 0
374 1 Si 199.631 40.2626 1.63513 0
375 1 Si 196.539 40.6388 1.62237 0
376 1 Si 0.171837 42.134 1.62868 0
377 1 Si 2.86623 40.2826 1.61533 0
378 1 Si 114.733 39.058 1.62568 0
379 1 Si 111.528 39.6632 1.6285 0
380 1 Si 119.989 40.9985 1.6331 0
381 1 Si 116.794 41.5879 1.62339 0
382 1 Si 135.085 39.8963 1.61985 0
383 1 Si 148.664 40.1466 1.63658 0
384 1 Si 145.527 40.7758 1.62452 0
385 1 Si 154.546 41.6918 1.62415 0
386 1 Si 149.233 43.5356 1.61708 0
387 1 Si 152.381 44.304 1.63432 0
388 1 Si 159.611 40.3506 1.62593 0
389 1 Si 162.795 40.5153 1.64725 0
390 1 Si 175.283 40.1266 1.62222 0
391 1 Si 169.378 41.1098 1.64976 0
392 1 Si 172.684 42.0492 1.62715 0
393 1 Si 178.462 41.022 1.60818 0
394 1 Si 105.609 41.1348 1.62352 0
395 1 Si 102.561 41.7978 1.62638 0
396 1 Si 99.3117 36.1371 1.6323 0
397 1 Si 100.431 39.2454 1.62255 0
398 1 Si 110.667 42.7454 1.62101 0
399 1 Si 107.64 43.7251 1.61453 0
400 1 Si 124.945 43.1395 1.62119 0
401 1 Si 121.793 43.7608 1.62936 0
402 1 Si 129.986 44.2766 1.62044 0
403 1 Si 127.01 45.562 1.6351 0
404 1 Si 139.686 42.0707 1.62304 0
405 1 Si 136.564 42.6283 1.63721 0
406 1 Si 144.352 43.862 1.62479 0
407 1 Si 141.231 44.7625 1.62316 0
408 1 Si 157.575 42.8134 1.6332 0
409 1 Si 163.955 43.5467 1.63421 0
410 1 Si 167.247 43.6759 1.64833 0
411 1 Si 179.918 44.0334 1.63149 0
412 1 Si 201.994 45.4035 1.62797 0
413 1 Si 7.36559 5.08429 1.63596 0
414 1 Si 10.6553 4.34394 1.63787 0
415 1 Si 10.9968 1.11214 1.64277 0
416 1 Si 5.0777 174.98 1.61881 0
417 1 Si 8.54329 175.588 1.61244 0
418 1 Si 5.80421 41.4802 1.62187 0
419 1 Si 8.07885 39.0909 1.61975 0
420 1 Si 3.0313 46.6882 1.61279 0
421 1 Si 5.70826 44.7345 1.63472 0
422 1 Si 13.6159 6.1409 1.62307 0
423 1 Si 13.6296 9.42821 1.63624 0
424 1 Si 10.884 11.1238 1.62622 0
425 1 Si 16.8321 4.98338 1.63473 0
426 1 Si 17.0758 1.75312 1.6393 0
427 1 Si 14.1647 0.227592 1.62021 0
428 1 Si 115.713 44.7135 1.61882 0
429 1 Si 112.576 45.3584 1.62847 0
430 1 Si 19.7341 6.69616 1.61321 0
431 1 Si 19.3282 9.86047 1.63024 0
432 1 Si 16.4194 11.2304 1.62479 0
433 1 Si 23.1084 6.75546 1.62392 0
434 1 Si 24.9549 4.14762 1.61918 0
435 1 Si 23.1131 1.37942 1.62265 0
436 1 Si 19.9986 0.17363 1.64817 0
437 1 Si 24.9078 9.55028 1.61706 0
438 1 Si 22.1989 11.3477 1.62817 0
439 1 Si 28.3514 4.06436 1.6126 0
440 1 Si 28.5304 0.859288 1.6316 0
441 1 Si 25.6555 176.189 1.63723 0
442 1 Si 120.745 46.8546 1.64148 0
443 1 Si 117.555 47.3533 1.63582 0
444 1 Si 31.4087 5.67312 1.64086 0
445 1 Si 31.1886 9.15276 1.64531 0
446 1 Si 28.1011 10.7697 1.63654 0
447 1 Si 34.4383 3.68943 1.63291 0
448 1 Si 34.2768 0.280723 1.62876 0
449 1 Si 31.2428 175.902 1.6459 0
450 1 Si 37.7685 4.62965 1.63403 0
451 1 Si 39.2012 7.79976 1.63027 0
452 1 Si 34.0196 11.1024 1.6265 0
453 1 Si 37.3385 10.6875 1.63122 0
454 1 Si 39.9723 2.08065 1.61536 0
455 1 Si 39.8064 175.606 1.60719 0
456 1 Si 36.6946 174.678 1.64446 0
457 1 Si 43.125 2.39573 1.6201 0
458 1 Si 44.5367 5.18754 1.62227 0
459 1 Si 42.7057 7.91078 1.6237 0
460 1 Si 45.0118 176.587 1.59873 0
461 1 Si 42.8351 174.211 1.62321 0
462 1 Si 132.436 46.4661 1.64837 0
463 1 Si 135.647 45.6546 1.62595 0
464 1 Si 47.6054 4.03896 1.6203 0
465 1 Si 48.0434 0.783337 1.62394 0
466 1 Si 53.1361 5.42193 1.6052 0
467 1 Si 49.9377 6.18863 1.6168 0
468 1 Si 55.7489 7.39388 1.61809 0
469 1 Si 48.6677 9.23819 1.60616 0
470 1 Si 54.8687 10.3892 1.61637 0
471 1 Si 51.5797 10.7698 1.62628 0
472 1 Si 54.8966 2.79046 1.62999 0
473 1 Si 53.6369 176.705 1.61685 0
474 1 Si 50.6516 175.699 1.59346 0
475 1 Si 146.763 45.9807 1.61905 0
476 1 Si 58.0859 3.42563 1.6255 0
477 1 Si 58.9068 6.56318 1.61363 0
478 1 Si 60.2527 1.03307 1.63128 0
479 1 Si 55.4912 174.139 1.60207 0
480 1 Si 58.8198 174.684 1.62632 0
481 1 Si 64.5234 5.48966 1.64862 0
482 1 Si 63.4922 2.13218 1.65159 0
483 1 Si 62.032 7.83076 1.64712 0
484 1 Si 158.526 45.8989 1.65139 0
485 1 Si 161.814 46.1383 1.62842 0
486 1 Si 153.081 47.6515 1.61438 0
487 1 Si 156.293 48.3519 1.628 0
488 1 Si 70.1746 3.72766 1.63049 0
489 1 Si 73.6743 3.9008 1.62427 0
490 1 Si 67.8733 6.55213 1.63758 0
491 1 Si 75.5135 6.66453 1.63235 0
492 1 Si 68.5504 10.2348 1.6438 0
493 1 Si 74.7571 9.85327 1.6274 0
494 1 Si 71.8639 11.6209 1.65418 0
495 1 Si 68.9785 0.396654 1.64416 0
496 1 Si 75.7787 1.17566 1.63328 0
497 1 Si 71.0558 174.445 1.65219 0
498 1 Si 74.3625 174.956 1.64735 0
499 1 Si 65.6431 176.309 1.65114 0
500 1 Si 80.8405 3.94259 1.63753 0
501 1 Si 78.8046 6.43234 1.62765 0
502 1 Si 79.2181 1.11355 1.62885 0
503 1 Si 173.973 45.1161 1.64883 0
504 1 Si 177.241 46.0473 1.64438 0
505 1 Si 84.157 4.31154 1.64924 0
506 1 Si 85.5566 7.31668 1.64422 0
507 1 Si 80.2922 9.23895 1.64875 0
508 1 Si 83.4832 9.82603 1.64505 0
509 1 Si 86.1883 1.70056 1.63266 0
510 1 Si 81.404 175.292 1.62958 0
511 1 Si 84.8523 175.419 1.62755 0
512 1 Si 90.7333 5.23217 1.64848 0
513 1 Si 88.819 7.91593 1.63717 0
514 1 Si 89.4923 2.16986 1.64874 0
515 1 Si 93.9833 5.64048 1.64468 0
516 1 Si 95.106 8.64716 1.636 0
517 1 Si 90.1603 11.0003 1.6337 0
518 1 Si 93.4857 11.4196 1.61781 0
519 1 Si 96.2018 3.22511 1.63807 0
520 1 Si 94.9519 0.186582 1.64392 0
521 1 Si 91.6746 176.434 1.64825 0
522 1 Si 100.251 175.162 1.62868 0
523 1 Si 97.0679 174.457 1.64182 0
524 1 Si 107.989 46.9925 1.62379 0
525 1 Si 105.877 49.3864 1.63417 0
526 1 Si 102.888 48.1663 1.64104 0
527 1 Si 101.962 45.0213 1.62414 0
528 1 Si 110.959 48.2286 1.60423 0
529 1 Si 125.934 48.6611 1.6368 0
530 1 Si 122.749 49.4248 1.62714 0
531 1 Si 131.32 49.5561 1.61665 0
532 1 Si 128.309 50.8031 1.61015 0
533 1 Si 138.706 46.9129 1.62012 0
534 1 Si 139.126 50.1039 1.62071 0
535 1 Si 145.859 49.3475 1.6275 0
536 1 Si 142.549 50.55 1.61531 0
537 1 Si 45.3162 10.0405 1.61785 0
538 1 Si 168.349 46.7167 1.64891 0
539 1 Si 162.987 49.1415 1.62304 0
540 1 Si 166.171 49.1207 1.63222 0
541 1 Si 171.548 47.3189 1.64523 0
542 1 Si 62.6665 11.1747 1.61868 0
543 1 Si 57.0381 12.8711 1.63267 0
544 1 Si 60.3036 13.5539 1.61845 0
545 1 Si 65.7532 12.5292 1.61536 0
546 1 Si 77.7707 11.1938 1.62632 0
547 1 Si 84.6419 12.8532 1.62777 0
548 1 Si 87.9648 13.4852 1.63008 0
549 1 Si 177.97 49.2719 1.64006 0
550 1 Si 3.04418 49.9312 1.63306 0
551 1 Si 0.371039 51.7608 1.62084 0
552 1 Si 116.29 50.268 1.6254 0
553 1 Si 110.962 51.6381 1.62153 0
554 1 Si 113.943 52.3507 1.62814 0
555 1 Si 121.321 52.372 1.65154 0
556 1 Si 118.142 52.7668 1.61447 0
557 1 Si 10.99 14.2986 1.6266 0
558 1 Si 7.95373 15.402 1.63699 0
559 1 Si 16.554 14.5013 1.62735 0
560 1 Si 13.6905 16.0202 1.65254 0
561 1 Si 22.3063 14.5319 1.6309 0
562 1 Si 19.419 16.1111 1.63462 0
563 1 Si 136.431 52.2438 1.61688 0
564 1 Si 133.213 52.0903 1.63178 0
565 1 Si 28.1013 14.1098 1.63726 0
566 1 Si 25.3038 15.8404 1.6472 0
567 1 Si 33.7173 14.3794 1.62723 0
568 1 Si 30.8713 15.8712 1.63728 0
569 1 Si 44.3683 13.0546 1.61384 0
570 1 Si 38.5668 13.7923 1.62234 0
571 1 Si 41.6314 14.6324 1.6124 0
572 1 Si 151.565 50.6896 1.63328 0
573 1 Si 148.381 51.6836 1.61637 0
574 1 Si 51.7028 13.8756 1.61282 0
575 1 Si 46.2907 15.541 1.60844 0
576 1 Si 49.398 16.0017 1.63424 0
577 1 Si 54.6719 14.9936 1.60965 0
578 1 Si 156.69 51.6598 1.60904 0
579 1 Si 159.243 53.7951 1.62497 0
580 1 Si 162.057 52.2784 1.62436 0
581 1 Si 72.7085 14.936 1.62688 0
582 1 Si 65.114 16.0124 1.62312 0
583 1 Si 70.8395 17.7758 1.62487 0
584 1 Si 67.5417 18.5759 1.62944 0
585 1 Si 172.259 50.4447 1.6306 0
586 1 Si 175.368 51.2435 1.64218 0
587 1 Si 78.7438 14.2447 1.64454 0
588 1 Si 75.8951 15.9013 1.61303 0
589 1 Si 82.0675 14.9473 1.62588 0
590 1 Si 89.2026 16.5511 1.64654 0
591 1 Si 92.5158 17.4584 1.631 0
592 1 Si 5.73979 51.4688 1.62048 0
593 1 Si 8.6659 45.76 1.60147 0
594 1 Si 10.0412 48.4819 1.59904 0
595 1 Si 8.81179 51.1594 1.61328 0
596 1 Si 106.422 52.6089 1.6215 0
597 1 Si 109.063 54.4431 1.60585 0
598 1 Si 128.329 54.0508 1.62688 0
599 1 Si 36.4114 16.211 1.63159 0
600 1 Si 142.405 53.6563 1.62989 0
601 1 Si 135.911 55.4691 1.59597 0
602 1 Si 140.529 56.0553 1.60161 0
603 1 Si 137.993 57.7398 1.62047 0
604 1 Si 43.5648 17.1132 1.62502 0
605 1 Si 153.769 53.1589 1.62085 0
606 1 Si 61.6621 16.6324 1.61503 0
607 1 Si 54.0948 18.0922 1.62748 0
608 1 Si 59.5857 19.4993 1.62941 0
609 1 Si 56.2033 20.4278 1.61703 0
610 1 Si 166.848 52.223 1.63004 0
611 1 Si 169.939 52.7108 1.62375 0
612 1 Si 147.869 55.0954 1.60627 0
613 1 Si 144.751 55.7523 1.64386 0
614 1 Si 175.657 54.4184 1.65278 0
615 1 Si 178.493 55.7758 1.62239 0
616 1 Si 83.443 17.8897 1.63699 0
617 1 Si 86.6677 18.6973 1.63596 0
618 1 Si 0.548265 54.9505 1.65568 0
619 1 Si 3.30313 56.439 1.60898 0
620 1 Si 7.43977 54.0304 1.63311 0
621 1 Si 6.43643 56.822 1.61511 0
622 1 Si 104.123 54.8254 1.6234 0
623 1 Si 101.141 53.7939 1.63271 0
624 1 Si 100.745 50.5803 1.6406 0
625 1 Si 197.052 55.7268 1.63824 0
626 1 Si 199.982 56.8347 1.65131 0
627 1 Si 115.759 54.8264 1.61266 0
628 1 Si 7.51541 18.5289 1.62791 0
629 1 Si 116.264 57.8665 1.62568 0
630 1 Si 13.143 19.1796 1.61548 0
631 1 Si 10.1641 20.2754 1.62857 0
632 1 Si 131.44 54.8049 1.61823 0
633 1 Si 19.6755 19.3316 1.61801 0
634 1 Si 14.7078 21.9744 1.62149 0
635 1 Si 17.847 21.9957 1.62009 0
636 1 Si 133.267 57.3798 1.62438 0
637 1 Si 25.4094 19.0773 1.64482 0
638 1 Si 22.6076 20.618 1.63762 0
639 1 Si 30.9121 19.155 1.64339 0
640 1 Si 28.1453 20.8254 1.63866 0
641 1 Si 36.508 19.5344 1.61831 0
642 1 Si 33.6239 20.9166 1.64265 0
643 1 Si 43.3898 20.221 1.61084 0
644 1 Si 41.3378 22.7259 1.61036 0
645 1 Si 38.1546 22.4673 1.622 0
646 1 Si 153.351 56.505 1.61877 0
647 1 Si 150.114 57.7326 1.60972 0
648 1 Si 50.9684 18.7272 1.61226 0
649 1 Si 156.155 58.4974 1.62869 0
650 1 Si 159.266 57.2339 1.63148 0
651 1 Si 164.491 54.3613 1.61695 0
652 1 Si 72.7733 20.468 1.60968 0
653 1 Si 67.0247 22.1156 1.62043 0
654 1 Si 69.2572 24.8032 1.6205 0
655 1 Si 72.3669 23.8087 1.62591 0
656 1 Si 75.7057 19.1032 1.61276 0
657 1 Si 81.4058 20.3098 1.62135 0
658 1 Si 78.2541 20.9229 1.63933 0
659 1 Si 170.197 55.8343 1.61404 0
660 1 Si 173.246 56.4935 1.63561 0
661 1 Si 92.8272 20.5568 1.59378 0
662 1 Si 94.5787 23.1486 1.63475 0
663 1 Si 194.733 58.0388 1.62538 0
664 1 Si 108.288 57.7936 1.63359 0
665 1 Si 104.967 57.9477 1.62552 0
666 1 Si 113.672 60.1681 1.6071 0
667 1 Si 110.229 60.6266 1.63976 0
668 1 Si 46.1982 21.6481 1.61034 0
669 1 Si 45.8411 24.7684 1.61554 0
670 1 Si 42.8443 25.759 1.62907 0
671 1 Si 49.3143 21.3597 1.63326 0
672 1 Si 132.732 60.6412 1.63582 0
673 1 Si 142.808 58.1826 1.59497 0
674 1 Si 60.9632 22.4249 1.63575 0
675 1 Si 54.1091 23.1819 1.6243 0
676 1 Si 58.7846 24.8151 1.60862 0
677 1 Si 55.7083 25.8785 1.61669 0
678 1 Si 64.0184 23.5223 1.62481 0
679 1 Si 164.709 57.586 1.63151 0
680 1 Si 167.873 58.0503 1.61247 0
681 1 Si 177.781 58.9595 1.61517 0
682 1 Si 183.336 59.6139 1.62587 0
683 1 Si 180.339 60.6752 1.61682 0
684 1 Si 87.5826 21.8147 1.62655 0
685 1 Si 82.9285 23.0675 1.63251 0
686 1 Si 85.7991 24.4053 1.62111 0
687 1 Si 90.5518 22.6555 1.60566 0
688 1 Si 199.995 59.9666 1.62347 0
689 1 Si 195.096 61.4417 1.62054 0
690 1 Si 198.074 62.5064 1.62813 0
691 1 Si 0.800134 61.1635 1.64685 0
692 1 Si 3.39418 59.5222 1.63139 0
693 1 Si 115.482 62.8668 1.63823 0
694 1 Si 9.86086 23.4174 1.63309 0
695 1 Si 7.01985 24.9637 1.64087 0
696 1 Si 12.8155 24.5897 1.61607 0
697 1 Si 138.022 60.8946 1.62135 0
698 1 Si 135.377 62.8068 1.62785 0
699 1 Si 22.5425 23.7935 1.63569 0
700 1 Si 19.5044 24.7507 1.61313 0
701 1 Si 149.659 61.2678 1.63038 0
702 1 Si 141.245 60.9035 1.63918 0
703 1 Si 143.265 63.2963 1.61337 0
704 1 Si 146.645 63.1991 1.6056 0
705 1 Si 28.1004 24.1033 1.64363 0
706 1 Si 25.201 25.6041 1.64374 0
707 1 Si 155.849 61.8461 1.64539 0
708 1 Si 152.631 63.074 1.6266 0
709 1 Si 161.978 59.426 1.64383 0
710 1 Si 33.6892 24.161 1.64028 0
711 1 Si 30.89 25.8158 1.64527 0
712 1 Si 36.6416 25.4984 1.6153 0
713 1 Si 172.536 59.5875 1.63134 0
714 1 Si 169.534 60.6631 1.61977 0
715 1 Si 175.257 61.0466 1.61237 0
716 1 Si 50.9253 24.0774 1.61899 0
717 1 Si 190.181 61.7486 1.63235 0
718 1 Si 184.839 62.4953 1.64884 0
719 1 Si 187.76 63.8651 1.63741 0
720 1 Si 192.926 63.9653 1.61383 0
721 1 Si 63.2263 26.6935 1.62512 0
722 1 Si 68.5987 28.1815 1.62224 0
723 1 Si 65.4176 28.9191 1.61539 0
724 1 Si 77.6072 24.013 1.61971 0
725 1 Si 74.982 25.8726 1.6329 0
726 1 Si 80.5611 25.0018 1.63608 0
727 1 Si 102.515 60.2194 1.6249 0
728 1 Si 98.7648 56.0369 1.63821 0
729 1 Si 99.3333 59.2516 1.61853 0
730 1 Si 108.851 63.8613 1.63977 0
731 1 Si 105.745 64.8448 1.64909 0
732 1 Si 102.843 63.5037 1.62956 0
733 1 Si 92.171 25.3284 1.60865 0
734 1 Si 114.771 66.036 1.61173 0
735 1 Si 109.844 67.0525 1.61664 0
736 1 Si 112.665 68.5209 1.61851 0
737 1 Si 48.6335 26.363 1.64478 0
738 1 Si 60.1319 27.6378 1.61998 0
739 1 Si 161.809 62.9161 1.60843 0
740 1 Si 158.633 63.8059 1.62443 0
741 1 Si 86.8585 27.5174 1.61388 0
742 1 Si 81.3969 27.9464 1.62177 0
743 1 Si 84.2155 29.4127 1.64446 0
744 1 Si 167.75 63.2273 1.57625 0
745 1 Si 163.279 66.0932 1.61254 0
746 1 Si 166.288 65.9538 1.66472 0
747 1 Si 90.2189 28.0107 1.63023 0
748 1 Si 175.149 64.2376 1.60377 0
749 1 Si 169.833 65.605 1.62051 0
750 1 Si 172.85 66.2802 1.63473 0
751 1 Si 179.981 63.7809 1.6258 0
752 1 Si 182.827 64.929 1.64136 0
753 1 Si 0.580552 64.2356 1.6262 0
754 1 Si 199.602 65.3092 1.62878 0
755 1 Si 7.32281 28.1639 1.6202 0
756 1 Si 3.43911 65.5161 1.63205 0
757 1 Si 6.25867 63.9987 1.63437 0
758 1 Si 6.18772 60.8899 1.63817 0
759 1 Si 13.1443 27.7618 1.65314 0
760 1 Si 10.3552 29.3833 1.63193 0
761 1 Si 119.93 67.5391 1.63688 0
762 1 Si 116.97 68.2831 1.61018 0
763 1 Si 18.9838 27.881 1.63129 0
764 1 Si 16.038 29.2173 1.61687 0
765 1 Si 135.794 66.2953 1.62543 0
766 1 Si 130.093 67.5335 1.62238 0
767 1 Si 133.202 68.3412 1.63998 0
768 1 Si 24.8162 28.8583 1.64124 0
769 1 Si 21.5868 29.8364 1.61626 0
770 1 Si 141.483 66.0664 1.58664 0
771 1 Si 138.78 67.9645 1.63492 0
772 1 Si 30.8497 29.092 1.63714 0
773 1 Si 27.7646 30.5029 1.62852 0
774 1 Si 146.766 66.4812 1.61365 0
775 1 Si 143.985 68.0463 1.62614 0
776 1 Si 36.8778 28.9353 1.6509 0
777 1 Si 33.8868 30.5948 1.64008 0
778 1 Si 152.317 66.3743 1.6377 0
779 1 Si 149.493 68.1529 1.63837 0
780 1 Si 42.8115 29.2059 1.65545 0
781 1 Si 39.8069 30.782 1.63491 0
782 1 Si 158.186 67.0241 1.64247 0
783 1 Si 155.082 68.0235 1.63533 0
784 1 Si 48.7355 29.6163 1.62127 0
785 1 Si 45.7111 31.1734 1.63566 0
786 1 Si 177.792 65.9538 1.61038 0
787 1 Si 54.7256 29.0592 1.62476 0
788 1 Si 51.8181 31.0354 1.63547 0
789 1 Si 57.8758 30.0069 1.63158 0
790 1 Si 188.254 67.1303 1.63465 0
791 1 Si 183.098 68.0382 1.63328 0
792 1 Si 185.924 69.2305 1.61586 0
793 1 Si 75.7629 29.0909 1.61922 0
794 1 Si 69.9579 31.2807 1.6228 0
795 1 Si 72.4677 33.5799 1.62229 0
796 1 Si 75.4218 32.4154 1.62124 0
797 1 Si 193.452 67.6573 1.64345 0
798 1 Si 190.651 69.3429 1.63459 0
799 1 Si 78.8266 29.642 1.62537 0
800 1 Si 199.056 68.4731 1.62497 0
801 1 Si 196.068 70.0311 1.64493 0
802 1 Si 105.228 68.0012 1.62926 0
803 1 Si 107.867 69.61 1.62543 0
804 1 Si 91.7974 30.9381 1.62191 0
805 1 Si 95.469 31.1275 1.62465 0
806 1 Si 103.065 70.3267 1.63148 0
807 1 Si 100.18 69.1545 1.62183 0
808 1 Si 100.379 65.7963 1.6301 0
809 1 Si 124.785 68.749 1.62583 0
810 1 Si 121.877 69.948 1.61597 0
811 1 Si 127.703 69.8071 1.62322 0
812 1 Si 64.5264 31.969 1.61068 0
813 1 Si 58.9168 33.0345 1.62495 0
814 1 Si 61.9837 33.8763 1.61145 0
815 1 Si 67.4284 33.229 1.60303 0
816 1 Si 160.488 69.2957 1.63579 0
817 1 Si 163.674 69.5763 1.61028 0
818 1 Si 83.2068 32.4346 1.59528 0
819 1 Si 80.0807 32.4325 1.60927 0
820 1 Si 168.302 68.6109 1.55752 0
821 1 Si 89.3472 33.5937 1.6134 0
822 1 Si 83.0503 35.6476 1.60852 0
823 1 Si 86.3589 35.654 1.61633 0
824 1 Si 178.283 69.09 1.63028 0
825 1 Si 181.062 70.4603 1.6235 0
826 1 Si 10.5429 32.5843 1.63044 0
827 1 Si 3.14305 68.6336 1.61989 0
828 1 Si 0.0634088 69.7853 1.62098 0
829 1 Si 16.356 32.4118 1.61244 0
830 1 Si 13.5209 34.21 1.66135 0
831 1 Si 6.09174 70.0298 1.62554 0
832 1 Si 9.18545 65.249 1.63499 0
833 1 Si 8.97509 68.4705 1.6467 0
834 1 Si 116.67 71.3965 1.60325 0
835 1 Si 113.546 71.862 1.64552 0
836 1 Si 19.6881 32.525 1.62219 0
837 1 Si 119.725 72.3127 1.63071 0
838 1 Si 27.7305 33.7794 1.64126 0
839 1 Si 21.3995 35.1929 1.62328 0
840 1 Si 24.747 35.3289 1.61824 0
841 1 Si 126.749 72.967 1.62558 0
842 1 Si 132.706 71.5133 1.63302 0
843 1 Si 129.911 73.0126 1.62331 0
844 1 Si 33.8267 33.9139 1.65411 0
845 1 Si 30.7612 35.3221 1.63638 0
846 1 Si 143.053 71.0949 1.60328 0
847 1 Si 139.841 71.2363 1.60547 0
848 1 Si 39.8082 34.2266 1.64345 0
849 1 Si 36.7313 35.6504 1.64783 0
850 1 Si 149.12 71.4066 1.6329 0
851 1 Si 144.208 74.1019 1.61818 0
852 1 Si 147.342 74.1556 1.62337 0
853 1 Si 154.491 71.118 1.62969 0
854 1 Si 151.881 72.8119 1.63299 0
855 1 Si 45.7104 34.6366 1.64116 0
856 1 Si 42.6615 36.2529 1.64869 0
857 1 Si 51.6226 34.4848 1.61928 0
858 1 Si 48.7401 36.3229 1.62705 0
859 1 Si 57.3326 35.7984 1.6235 0
860 1 Si 54.2645 36.4628 1.63062 0