LAMMPS data file via write_data, version 2 Aug 2023, timestep = 288, units = metal

15288 atoms
2 atom types

8.161773758497684 193.7340339966511 xlo xhi
6.803030740795367 169.45850913419596 ylo yhi
-100 100 zlo zhi

Masses

1 28.085
2 15.999

Atoms # full

9228 1 2 0 9.455412185345565 8.344401330038314 -2.2933690767200763 0 0 0
6549 1 1 0 8.81215655170767 6.942444763871376 -1.6570266265563849 0 1 0
6548 1 1 0 9.65011916190818 9.807260773639243 -1.5240229403798922 0 0 0
6551 1 1 0 12.066870252302968 11.510640416891896 -1.6414133970683917 0 0 0
9229 1 2 0 10.594993503952 10.994149373776663 -2.2373103552041966 0 0 0
9234 1 2 0 13.086616670486322 10.381103031111207 -2.257251160507764 0 0 0
9240 1 2 0 12.996718606450699 7.801338402227932 -2.2403615279759883 0 0 0
12921 1 2 0 11.950502838424631 11.643614989773662 -1.4025155024061804e-07 0 0 0
6555 1 1 0 13.856324309699344 9.085000595834599 -1.6423985792601594 0 0 0
9671 1 2 0 18.897618897761657 7.983236019165571 -2.2097923155558656 0 0 0
6844 1 1 0 16.269335496658965 10.631656233282113 -1.644357749255424 0 0 0
9241 1 2 0 15.445153571739985 9.24541661864851 -2.1029765687498485 0 0 0
9670 1 2 0 17.80167247332266 10.462439814893134 -2.236270635235476 0 0 0
9238 1 2 0 15.54419883863053 12.0102714994188 -2.238919600080027 0 0 0
6845 1 1 0 19.07096542070668 9.551959109876432 -1.650932765327443 0 0 0
9689 1 2 0 23.34791906160196 7.8940183825264185 -2.1106456317338855 0 0 0
9672 1 2 0 20.427431617363272 10.337305810774662 -2.2097709205652962 0 0 0
6851 1 1 0 21.67397452074327 11.299501130225588 -1.650326545435424 0 0 0
9682 1 2 0 23.09884607423256 10.598790288021489 -2.201317855158167 0 0 0
6856 1 1 0 24.0563113898049 9.341479579864824 -1.6469392428998806 0 0 0
13221 1 2 0 21.669660067623123 11.308751235863067 -2.8245627181525135e-07 0 0 0
6864 1 1 0 29.349793129512516 8.011885129059664 -1.6449109356484197 0 0 0
9698 1 2 0 28.543249586500696 9.385892301821649 -2.1628082793273746 0 0 0
9690 1 2 0 25.63567266300176 9.397946082063005 -2.2211809244024794 0 0 0
6861 1 1 0 27.082143890148355 10.02303359550576 -1.6441723217214559 0 0 0
9697 1 2 0 27.10659037945229 11.57298479298435 -2.1876451821649923 0 0 0
9703 1 2 0 28.282197016579488 6.85182228017548 -2.2024553310999906 0 1 0
9702 1 2 0 30.949926475961256 7.915796929110608 -2.2060854189884274 0 0 0
6867 1 1 0 32.54754214291836 7.715265804539309 -1.6473616502804334 0 0 0
9705 1 2 0 33.67998194335809 8.8335759699771 -2.1717078812885164 0 0 0
6865 1 1 0 35.059877511172644 9.634377311499684 -1.6475581265898613 0 0 0
9704 1 2 0 34.74470204379159 11.190073489073086 -2.1752460769355135 0 0 0
13237 1 2 0 32.46024303528252 7.7504639675439275 -2.6701073712135026e-07 0 0 0
6866 1 1 0 33.953219896571355 12.566851155904422 -1.6483219322793947 0 0 0
13236 1 2 0 33.89753290270802 12.593156966990774 1.5415644916026727e-07 0 0 0
9706 1 2 0 36.57209506168381 9.049177388300585 -2.18929861124267 0 0 0
6871 1 1 0 38.09141372740552 8.498932733594138 -1.6477644422571844 0 0 0
9714 1 2 0 38.54150814994487 6.9852861571190275 -2.202610516117644 0 0 0
9713 1 2 0 39.40288753754763 9.39176683139917 -2.1821424161893166 0 0 0
6872 1 1 0 40.920716558696945 9.833877672194822 -1.6486592323092015 0 0 0
9715 1 2 0 41.04112878038167 11.360545275991342 -2.256479286589566 0 0 0
9716 1 2 0 42.27978979647029 8.991232027422189 -2.1831587298422708 0 0 0
13242 1 2 0 40.93091195831724 9.77486134192001 -5.678078323763225e-07 0 0 0
9732 1 2 0 44.5708928773056 7.425098259049932 -2.223792365064576 0 0 0
6882 1 1 0 43.86772800131999 8.81020565723434 -1.6494373113561447 0 0 0
9731 1 2 0 44.90951984337756 9.969779632795985 -2.218844308051257 0 0 0
6883 1 1 0 45.97964249271403 11.103345624893244 -1.6487232748340468 0 0 0
13252 1 2 0 43.83635860872215 8.81532376516375 -2.2572695331847532e-07 0 0 0
13253 1 2 0 46.0278649622639 11.069995828778683 -7.126633905412343e-07 0 0 0
9733 1 2 0 45.324359000272054 12.522429721558803 -2.2190576817271768 0 0 0
9734 1 2 0 47.541922571655945 10.904982319636302 -2.2116604320044333 0 0 0
6887 1 1 0 50.31409269667176 7.741395427828003 -1.649778696029382 0 0 0
6888 1 1 0 49.11006120849282 10.675139690059362 -1.6495565830818522 0 0 0
9739 1 2 0 49.68874368633696 9.201168440316284 -2.189363030915554 0 0 0
9742 1 2 0 50.114403002795584 11.89736082701631 -2.1970878324853693 0 0 0
13257 1 2 0 50.34419461126091 7.722633633365467 -7.787097315971558e-07 0 0 0
9741 1 2 0 51.91413651751808 7.621399686061663 -2.1947915713719772 0 0 0
6890 1 1 0 53.510110211805326 7.575257357030211 -1.6418917012758507 0 0 0
9744 1 2 0 54.585819444468754 8.713446571051094 -2.2241406391934944 0 0 0
6891 1 1 0 55.606612400754194 9.895510794635362 -1.6439437599468991 0 0 0
9746 1 2 0 54.77989083759904 11.235248961277561 -2.152475782181988 0 0 0
9747 1 2 0 57.20948390038519 9.822543740972549 -2.224630938766086 0 0 0
6898 1 1 0 58.7903713611013 9.843101379845546 -1.6357382471243238 0 0 0
9757 1 2 0 59.698965082496215 8.481714412877496 -2.033440068313379 0 0 0
9756 1 2 0 59.938573478850564 10.894118340821258 -2.3022224087342797 0 0 0
9763 1 2 0 61.87058258503209 7.050061181893456 -1.9872309154996217 0 0 0
6902 1 1 0 61.34512940956139 8.552122048463605 -1.6090563694744902 0 0 0
9764 1 2 0 62.579245756909785 9.544048405506228 -2.2268299257796826 0 0 0
6899 1 1 0 60.70764230574334 12.190496546073673 -1.5944345151266837 0 0 0
13269 1 2 0 61.07838208134208 11.875088773067949 -5.852610285139869e-07 0 0 0
6905 1 1 0 64.01079092298534 10.04163241467497 -1.5056035165230646 0 0 0
9768 1 2 0 64.06756486903981 11.66144686947546 -1.282547754891775 0 0 0
9769 1 2 0 65.44453623462638 9.9110002652331 -2.378144348154412 0 0 0
13275 1 2 0 64.18510679418952 9.301497158306814 -8.286768980246689e-07 0 0 0
9782 1 2 0 67.17321916688589 8.391596794711399 -1.3081821578083557 0 0 0
6913 1 1 0 66.87492715329344 9.982419841029255 -1.5065997739730705 0 0 0
13283 1 2 0 66.69218054502684 10.709444017650062 -2.9500899224683005e-07 0 0 0
6914 1 1 0 66.70306682766538 6.855451157810559 -1.5143657712085015 0 1 0
9783 1 2 0 68.23260408236249 10.618610724895664 -2.2359007268320665 0 0 0
6917 1 1 0 69.70343660111322 11.196534644904363 -1.6522965143374706 0 0 0
9786 1 2 0 71.00636629023812 10.218360689955611 -2.1734598647192858 0 0 0
6915 1 1 0 72.27515296679978 9.195496087054217 -1.646484344429842 0 0 0
9787 1 2 0 72.27112370169213 7.577471659706576 -2.162092780222766 0 0 0
13285 1 2 0 72.1978029433399 9.191231325141791 -5.001556875321591e-07 0 0 0
9789 1 2 0 76.29948346752842 8.73349876308082 -2.2168072938821637 0 0 0
6923 1 1 0 77.2469871483744 7.471070241386104 -1.6477196619984695 0 0 0
9785 1 2 0 73.75319605846964 9.809272233543256 -2.1608258017174378 0 0 0
6916 1 1 0 75.33752260075406 10.00839011493827 -1.6501521811181685 0 0 0
9788 1 2 0 75.89398496478944 11.50465124133246 -2.1954163448538977 0 0 0
13293 1 2 0 77.16823086996047 7.533533419914428 -9.194281408277776e-07 0 0 0
13286 1 2 0 75.39981608315865 9.989623643096076 7.768042172766285e-08 0 0 0
9801 1 2 0 78.79972605147165 7.592371423085222 -2.237574417955438 0 0 0
9811 1 2 0 81.2318542671639 8.172180754571263 -2.1203338890961687 0 0 0
6930 1 1 0 82.78061538970604 8.331713334414646 -1.646921883694127 0 0 0
9808 1 2 0 83.10301769897772 9.770533852416811 -2.3810915613016865 0 0 0
6929 1 1 0 83.03653192794383 11.151450651378248 -1.5072945247028526 0 0 0
6931 1 1 0 80.21185605085827 6.98315859076805 -1.6361846170679122 0 0 0
13299 1 2 0 82.37416832641466 10.950066130893125 -3.6779045270777643e-07 0 0 0
9809 1 2 0 82.1066525014671 12.220069729984466 -2.3148324149067183 0 0 0
9812 1 2 0 83.9537659306938 7.27002275421563 -2.1611414304372243 0 0 0
9810 1 2 0 84.61460086654664 11.595897084178356 -1.371506485953522 0 0 0
6935 1 1 0 85.49771242712605 7.681143251371422 -1.6548574252215291 0 0 0
9830 1 2 0 89.06710091428073 7.112065679601794 -2.1105483875621465 0 0 0
6934 1 1 0 85.99348533685193 10.648510835379774 -1.5091073319508284 0 0 0
9817 1 2 0 85.90931497457946 9.183265787170232 -2.2624007978754164 0 0 0
9818 1 2 0 86.9153829437297 11.734780052230727 -2.3377876522648293 0 0 0
9826 1 2 0 89.77944396119594 11.211865796391509 -2.147893678414698 0 0 0
6942 1 1 0 90.65727274772405 7.09048248016009 -1.6371453785127552 0 0 0
9827 1 2 0 91.11036207364431 8.584411910768356 -2.2422539879645225 0 0 0
6940 1 1 0 90.99507147087407 10.149097134380108 -1.6496259747584254 0 0 0
9828 1 2 0 92.30199496559004 10.933182266175066 -2.2696621240565467 0 0 0
9834 1 2 0 94.79881178963112 10.465809233250283 -2.1779957638964222 0 0 0
6944 1 1 0 93.68949275332628 11.525053668710635 -1.6423275279387506 0 0 0
13310 1 2 0 90.98114195335192 10.02591873158254 -5.106075406082318e-07 0 0 0
9838 1 2 0 95.80026840997246 8.175037761392945 -2.286197686399504 0 0 0
6947 1 1 0 96.13275515389115 9.701012452749021 -1.645486293582469 0 0 0
9839 1 2 0 97.31580298595847 10.744637582412686 -2.223412247018648 0 0 0
9063 1 2 0 99.7806863104103 10.329719827111157 -2.2132623018706656 0 0 0
6951 1 1 0 98.7099007992212 11.448189621606133 -1.6437881675700452 0 0 0
12821 1 2 0 100.45947598164018 7.505932026138348 -4.0883071774091697e-07 0 0 0
13317 1 2 0 96.3147307111718 9.560245540364571 6.696339101196652e-08 0 0 0
13321 1 2 0 98.605568280588 11.557461525969366 2.833490472803526e-07 0 0 0
9233 1 2 0 12.84399341719764 12.908640992424354 -2.155748124153297 0 0 0
9226 1 2 0 10.166433480187104 15.031903191055301 -2.201071075159307 0 0 0
6546 1 1 0 8.645716870652814 14.531026065080999 -1.6475822343433093 1 0 0
6552 1 1 0 11.320556892883134 16.153051311866076 -1.638318737924553 0 0 0
9235 1 2 0 12.92586458346133 16.234112035762944 -2.181012699043063 0 0 0
9236 1 2 0 10.613941468300967 17.567119827729822 -2.1251369850554194 0 0 0
12916 1 2 0 8.726646071630997 14.6521999438422 -4.934152208880943e-07 1 0 0
9223 1 2 0 8.375550025529446 12.969179824123003 -2.195882326570321 1 0 0
6553 1 1 0 14.449963036461646 13.124542309396173 -1.6523214243689348 0 0 0
9237 1 2 0 14.990328801925749 14.597921226268376 -2.184508592519337 0 0 0
6554 1 1 0 14.53872900361141 16.109779097265267 -1.6448609424116125 0 0 0
9239 1 2 0 15.792094613823744 17.133219774462503 -2.168910510981887 0 0 0
9685 1 2 0 18.692741751039428 17.526097423387412 -2.1452621087269335 0 0 0
12923 1 2 0 14.47879521612727 13.091596416449114 -1.494230342643095e-07 0 0 0
6854 1 1 0 17.126483851787434 18.067899485039675 -1.649468679694697 0 0 0
9681 1 2 0 21.474747293038064 12.887373353652421 -2.1716564596013384 0 0 0
9683 1 2 0 21.02040818915948 15.691252783409483 -2.1600746582718005 0 0 0
6852 1 1 0 22.020461238268208 14.397260208773048 -1.6489197743590254 0 0 0
9684 1 2 0 23.625441373660777 14.390744141528762 -2.1702559296614132 0 0 0
6853 1 1 0 20.31087485638106 17.173168451683793 -1.6495562809113329 0 0 0
13223 1 2 0 20.263961838201656 17.128478693542554 -4.025618687811328e-07 0 0 0
9686 1 2 0 21.35672962499187 18.40793450104617 -2.156578587323788 0 0 0
6863 1 1 0 25.160479194454933 14.83488019242687 -1.6476066429843264 0 0 0
9701 1 2 0 25.288127534437816 16.370075343815202 -2.232099525336742 0 0 0
6957 1 1 0 25.41662850439192 17.901967834128087 -1.648424554371667 0 0 0
6862 1 1 0 27.736696397351587 12.995719458567612 -1.6431039387239854 0 0 0
9700 1 2 0 29.342620486469933 12.984564597438858 -2.174964716757784 0 0 0
9699 1 2 0 26.551057220692634 14.062316985921074 -2.2016287766102716 0 0 0
9856 1 2 0 29.405876803917895 17.0095256661925 -2.1926647181059216 0 0 0
9853 1 2 0 26.90570687387718 18.388749574774096 -2.22345114569774 0 0 0
6961 1 1 0 28.460695177147397 18.277732422746908 -1.647272142245818 0 0 0
13331 1 2 0 28.41012655582461 18.23167757997444 -4.1291811837241807e-07 0 0 0
6868 1 1 0 30.898689844637413 13.39211870795733 -1.6463781567294318 0 0 0
9710 1 2 0 31.044889549717045 14.915537322416032 -2.249682074507628 0 0 0
6960 1 1 0 30.872797296183915 16.431871188360095 -1.6490046800059939 0 0 0
13238 1 2 0 30.892105355460966 13.265948478923502 6.612195609273255e-07 0 0 0
13330 1 2 0 30.85743374085433 16.461030794365048 -5.354361227221568e-07 0 0 0
9707 1 2 0 32.3347756814968 12.644746532574713 -2.1709356363952046 0 0 0
9708 1 2 0 34.97234671361894 13.794870365768348 -2.1738286689647093 0 0 0
9857 1 2 0 32.243493085999496 17.18181106080866 -2.214635477901526 0 0 0
6962 1 1 0 33.79580902102397 17.405439523544654 -1.6420488981350807 0 0 0
9720 1 2 0 35.020728978441255 16.435432902646987 -2.223311237365933 0 0 0
6874 1 1 0 35.87447518829252 15.107847103722236 -1.6504998285528958 0 0 0
9719 1 2 0 37.47851740176866 15.156734996500608 -2.202133857963097 0 0 0
6875 1 1 0 39.07743735990554 15.106716293769585 -1.646068239024231 0 0 0
9717 1 2 0 39.81986760278026 13.709016017464924 -2.1799001500837436 0 0 0
9721 1 2 0 40.13023018997727 16.29474407343883 -2.18878253931695 0 0 0
13245 1 2 0 38.99618587194815 15.179820145709161 -1.9343049367523317e-07 0 0 0
6873 1 1 0 41.163292178529545 12.882066000523205 -1.6490548025203955 0 0 0
9718 1 2 0 42.620511612477024 13.443610759111827 -2.2254683776964774 0 0 0
6990 1 1 0 41.37951534459354 17.271582761580767 -1.6483025818198296 0 0 0
9863 1 2 0 42.9489530383571 17.02563191541863 -2.208588753004785 0 0 0
13360 1 2 0 41.42946811375482 17.18577167740362 -2.432019737168267e-07 0 0 0
13243 1 2 0 41.17428425973463 12.908196478178288 -4.928675527303453e-08 0 0 0
6884 1 1 0 44.17623548689832 13.57286625161409 -1.6438349492899271 0 0 0
9735 1 2 0 44.73582624127006 15.028299029719001 -2.166325533984239 0 0 0
6964 1 1 0 44.467539299442876 16.570831552321113 -1.6427813110070608 0 0 0
9862 1 2 0 45.837747504728675 17.350003816511453 -2.205460107147317 0 0 0
13254 1 2 0 44.118099076078245 13.457572588347183 7.343404937419836e-07 0 0 0
9860 1 2 0 48.675598326634045 16.942552589306455 -2.1886649899297734 0 0 0
6965 1 1 0 47.34460600286339 17.853938925487093 -1.6500788340749555 0 0 0
6893 1 1 0 51.0535733775157 13.172626906871667 -1.6478667183294298 0 0 0
9750 1 2 0 50.274125035963785 14.575666205573045 -2.14778732414084 0 0 0
6963 1 1 0 50.09389711869484 16.173956782291985 -1.652890942342089 0 0 0
9861 1 2 0 51.488836993467416 16.8805613224002 -2.262994318762803 0 0 0
13263 1 2 0 51.113716350735864 13.15053218627885 -1.6191000731496737e-07 0 0 0
9748 1 2 0 52.643894047365336 13.015693527024542 -2.205112730980128 0 0 0
6892 1 1 0 54.20518465703287 12.706735182633432 -1.651319932490269 0 0 0
13337 1 2 0 52.91811871723742 17.188804282865892 -5.324801616146849e-07 0 0 0
13262 1 2 0 54.142152601995235 12.812593694986996 -2.6812447425401515e-07 0 0 0
9865 1 2 0 54.22032902027334 17.833124910485758 -2.329344743377853 0 0 0
6967 1 1 0 52.730099361369646 17.73959640277409 -1.5643955413363755 0 0 0
9749 1 2 0 55.390997598069596 13.689971539383409 -2.304408280000811 0 0 0
6900 1 1 0 56.490822976457544 14.644510526903245 -1.4982540673174956 0 0 0
9761 1 2 0 55.62356095180583 16.01166800486786 -1.325186896471549 0 0 0
6966 1 1 0 55.654963877804654 17.63338089672045 -1.4952114253405016 0 0 0
9866 1 2 0 57.05911730358902 18.12510194372295 -2.26750400391966 0 0 0
13336 1 2 0 55.591216771289105 18.39853207332026 -1.562963730012781e-08 0 0 0
9758 1 2 0 59.447528505596964 13.21846762336899 -1.7826239791743725 0 0 0
9760 1 2 0 57.902113834943535 15.127970072806026 -2.2781810320919518 0 0 0
6901 1 1 0 59.39962437477997 14.829686522605241 -1.5808651031901468 0 0 0
9870 1 2 0 59.907757867124765 17.679470832385732 -2.297291600528631 0 0 0
6995 1 1 0 58.55108010105074 18.239724363423615 -1.5072879225973943 0 0 0
13271 1 2 0 59.313775874426035 15.274926634081542 -9.107996509048034e-07 0 0 0
9759 1 2 0 62.052626909351154 12.886825222077963 -2.318248034228051 0 0 0
9762 1 2 0 60.893995176400054 15.41314468132104 -2.0881900892447818 0 0 0
6969 1 1 0 61.287713164216576 16.98279620721967 -1.6344842674356195 0 0 0
13339 1 2 0 61.34314250566319 17.271148571982877 2.688251620477341e-07 0 0 0
6906 1 1 0 63.491157052445985 13.16966745295524 -1.487381400112442 0 0 0
9770 1 2 0 64.72277934449994 14.023828551556857 -2.230366692986633 0 0 0
6968 1 1 0 65.94228890954255 15.034210390814915 -1.6487526183200008 0 0 0
9869 1 2 0 62.78605010082148 17.437116049492843 -2.2332575607030423 0 0 0
9868 1 2 0 65.44408136940078 16.557803332116197 -2.1437901990827846 0 0 0
6970 1 1 0 64.35027204461177 17.72882917162428 -1.6492287335398066 0 0 0
9794 1 2 0 67.50366767948098 14.653138818014027 -2.189624635249599 0 0 0
9790 1 2 0 69.67925178029581 12.821964766958622 -2.138757510592169 0 0 0
6919 1 1 0 69.08905033946209 14.334345861865213 -1.6493036318329377 0 0 0
9793 1 2 0 70.15557200183265 15.53993009438385 -2.17862295056136 0 0 0
6921 1 1 0 71.44354015327772 16.497345530266806 -1.6491809165332136 0 0 0
13289 1 2 0 69.04514824876544 14.355606931773748 -5.010770630117096e-07 0 0 0
13291 1 2 0 71.40839480277468 16.501775747824993 -4.563893435962457e-07 0 0 0
9797 1 2 0 71.43143502804493 18.098729751602537 -2.1763213256423968 0 0 0
9795 1 2 0 72.8684934381679 15.80956983416035 -2.2000653968891286 0 0 0
6918 1 1 0 76.17664456971748 13.069793245892681 -1.648116043495337 0 0 0
9792 1 2 0 77.6314636141125 13.691296514380548 -2.206150912020853 0 0 0
6920 1 1 0 74.42619156355542 15.598172160299086 -1.6485016823627736 0 0 0
9791 1 2 0 74.97966703871543 14.113093535493084 -2.177165606608712 0 0 0
9796 1 2 0 75.44363413515649 16.797913781079888 -2.216696464466943 0 0 0
6971 1 1 0 76.12469919337963 18.208996574170058 -1.6481692617203734 0 0 0
13341 1 2 0 76.07874625091804 18.186332786853217 2.5450648390900047e-07 0 0 0
6933 1 1 0 78.88626026935052 14.636566569977346 -1.6490652677722721 0 0 0
9816 1 2 0 78.94290478130549 16.194261691283618 -2.2198594910836476 0 0 0
6972 1 1 0 79.0899514154077 17.745233726416316 -1.6445453990609156 0 0 0
6932 1 1 0 81.781771555218 13.704150275272061 -1.6559641033935721 0 0 0
9814 1 2 0 80.28885517783728 14.011954707384499 -2.258181486231401 0 0 0
9815 1 2 0 82.98117721156969 14.701700580892641 -2.1979603872218307 0 0 0
13342 1 2 0 79.20435353759136 17.719703580751556 1.8094089581491521e-09 0 0 0
6939 1 1 0 84.4793439123222 15.158290071570635 -1.6480770756989027 0 0 0
7005 1 1 0 84.50921765509266 18.22273267598507 -1.6496572101333888 0 0 0
13375 1 2 0 84.4766647615392 18.262039954527207 -2.3571797192164596e-07 0 0 0
9825 1 2 0 84.62568527304929 16.687940559359657 -2.2354697615456978 0 0 0
6938 1 1 0 86.90642564105674 13.270885868612412 -1.6546032422920447 0 0 0
9824 1 2 0 88.43751319952514 13.73118809457356 -2.0970631543063116 0 0 0
9823 1 2 0 85.74852397130695 14.281898674965051 -2.2783519024460004 0 0 0
9927 1 2 0 88.56368645978846 18.162587921878696 -2.197648840123449 0 0 0
6941 1 1 0 89.76383446967404 12.820456422557184 -1.6438251232145624 0 0 0
13311 1 2 0 89.84519426215945 12.771394524148143 -1.708944028044862e-07 0 0 0
9833 1 2 0 94.0617753571826 12.979782032828767 -2.308583227792802 0 0 0
6946 1 1 0 91.50201295356582 15.238460861116664 -1.646175359976066 0 0 0
9829 1 2 0 91.02518407315941 13.746613756654822 -2.2188663376671074 0 0 0
9835 1 2 0 93.07729408923717 15.464672572938747 -2.1272653993479778 0 0 0
6945 1 1 0 94.31901365197885 14.463768474696865 -1.6529255766498425 0 0 0
9837 1 2 0 90.60210450215854 16.485665733632366 -2.260649653862524 0 0 0
7007 1 1 0 90.12091883357274 17.949773848381746 -1.6514642313337364 0 0 0
13377 1 2 0 90.15553359278424 17.978948576152238 -3.3929293815096804e-07 0 0 0
9845 1 2 0 95.25704826735209 17.463746961876595 -1.830672443268642 0 0 0
9836 1 2 0 95.7891903071127 14.973652236997289 -2.247386658605926 0 0 0
9307 1 2 0 99.2525308071051 12.948400632171609 -2.190739468612159 0 0 0
6952 1 1 0 96.4500111457134 16.34799203336346 -1.5954912608664187 0 0 0
6598 1 1 0 100.40163389079574 14.052557899228102 -1.648225819126753 0 0 0
9306 1 2 0 100.08660026356337 15.577879392938065 -2.2072235386820918 0 0 0
9309 1 2 0 97.84472429284773 16.88942262037031 -2.2899763116113196 0 0 0
6599 1 1 0 99.3818382562052 16.96066293946999 -1.6504843984512096 0 0 0
12968 1 2 0 100.39460487633008 14.00224998272495 8.293320860742171e-07 0 0 0
9308 1 2 0 100.18636893459048 18.30475608291859 -2.211284015814394 0 0 0
13322 1 2 0 96.76912815289165 16.06811784704782 4.012442878392954e-07 0 0 0
9299 1 2 0 8.884749583348178 19.568775238010506 -2.2045855476459617 0 0 0
6596 1 1 0 10.410533017941248 19.128565182856246 -1.6395856282744075 0 0 0
9303 1 2 0 11.749176216868124 19.94672495639711 -2.2243183471797927 0 0 0
6610 1 1 0 12.816821179845821 21.10505072221102 -1.6486373462374737 0 0 0
9323 1 2 0 12.147751607313381 22.517795696317187 -2.204766259262946 0 0 0
12966 1 2 0 10.410895991777386 19.304523582735634 1.2041446876558238e-06 0 0 0
12980 1 2 0 12.874008973214366 21.032407778214157 -6.044577199404475e-07 0 0 0
9321 1 2 0 9.475705585088434 23.313267032591842 -2.2315304221231194 0 0 0
6609 1 1 0 11.010275305571959 23.583954239216272 -1.647705739560168 0 0 0
12979 1 2 0 10.988391257906718 23.541726013990633 -2.54836792875039e-08 0 0 0
9325 1 2 0 14.402753288478726 21.007524507206377 -2.199706567504931 0 0 0
9687 1 2 0 16.803190359170443 19.663487455622775 -2.1419619284249323 0 0 0
6985 1 1 0 16.003670131786727 21.075122966827173 -1.6495677279804215 0 0 0
9895 1 2 0 16.786790194979822 22.499918379083535 -2.1610677698613174 0 0 0
7017 1 1 0 17.41725754716614 23.998644309057035 -1.6502754078695439 0 0 0
6958 1 1 0 22.64947887789559 19.364896559812188 -1.6494529697098705 0 0 0
9852 1 2 0 24.126485552595366 18.796429392555105 -2.2133128968774076 0 0 0
9854 1 2 0 22.501179037607045 20.949449597395336 -2.1889589834261476 0 0 0
7016 1 1 0 22.84161271994525 22.505005775105428 -1.650176413122599 0 0 0
9941 1 2 0 24.37597112323122 22.9322638286785 -2.2006291555373005 0 0 0
9940 1 2 0 21.663395761973227 23.585863748002716 -2.1767775972809273 0 0 0
9858 1 2 0 29.20871470677819 19.61309912174133 -2.2402139447160287 0 0 0
9947 1 2 0 29.657632760466853 22.136499621172863 -2.2425261114188633 0 0 0
7022 1 1 0 25.70811973845443 23.784483398670133 -1.6481923026721061 0 0 0
9948 1 2 0 27.196376342390046 23.257114598554956 -2.205579922166973 0 0 0
7023 1 1 0 28.76870102167291 23.389765236627337 -1.6490321704714375 0 0 0
7021 1 1 0 30.25773616530362 20.727882370691763 -1.6484865248965945 0 0 0
13391 1 2 0 30.29877702028326 20.7251781096928 -5.664118419273624e-07 0 0 0
9903 1 2 0 31.767384878976618 20.438306051225247 -2.2575625990973225 0 0 0
6991 1 1 0 33.30264213348672 20.315390366417176 -1.6458242389967441 0 0 0
9859 1 2 0 34.120517005947384 18.95560601529941 -2.1357898641989332 0 0 0
9902 1 2 0 34.15719914419719 21.57814993510535 -2.2575868111282 0 0 0
6994 1 1 0 35.340361804878015 22.552640616040254 -1.6510042954805157 0 0 0
9908 1 2 0 34.95550994181689 24.070325295395172 -2.2106282505963977 0 0 0
9906 1 2 0 36.77557492220612 21.914049297151852 -2.215823584675249 0 0 0
6992 1 1 0 40.875381842159946 20.293449006031217 -1.6491248071831817 0 0 0
9904 1 2 0 39.428719521396644 20.909642726674132 -2.2107775763601345 0 0 0
6993 1 1 0 38.332114458517694 22.02950482872509 -1.648096963790534 0 0 0
13362 1 2 0 40.88428364247261 20.351423662874176 -1.3585552867118348e-08 0 0 0
9907 1 2 0 38.80955036135169 23.491126093017293 -2.2485010701375105 0 0 0
9901 1 2 0 40.91202273109363 18.748675676027556 -2.2179502332812806 0 0 0
9905 1 2 0 42.246267606040846 21.041275198140156 -2.235916430136999 0 0 0
9997 1 2 0 41.425580605727774 24.095181834392875 -2.2148078796364996 0 0 0
9954 1 2 0 45.00971681181291 20.740916335247285 -2.191771374164976 0 0 0
7027 1 1 0 43.696732797568366 21.606352056016036 -1.648948122478508 0 0 0
9956 1 2 0 43.9183534518497 23.17749970915984 -2.1798479227689365 0 0 0
9864 1 2 0 47.424452591732916 19.456229377268247 -2.1645060046302453 0 0 0
7026 1 1 0 46.595405029735865 20.81950031518687 -1.6483385025968482 0 0 0
9955 1 2 0 47.25665931923147 22.243171437182777 -2.2161112098800393 0 0 0
7029 1 1 0 48.10532630138791 23.566779723910788 -1.6521411411412603 0 0 0
7028 1 1 0 51.12252764268313 23.03947326119546 -1.6486415839762898 0 0 0
9911 1 2 0 51.629544820151786 21.60485172720457 -2.284982707371696 0 0 0
9957 1 2 0 49.64231364362006 23.41843695255937 -2.276477995448014 0 0 0
13398 1 2 0 50.933963168608486 23.060202797089143 2.0067100215758587e-07 0 0 0
9867 1 2 0 52.1999761098483 19.28497710056266 -1.665180387733726 0 0 0
6996 1 1 0 52.87173637664806 20.772521365178747 -1.5741546920728433 0 0 0
9910 1 2 0 54.39520329305669 20.9222767966019 -2.267125941916727 0 0 0
13366 1 2 0 53.05713567445711 21.263508734006273 -3.0328182879460236e-07 0 0 0
9958 1 2 0 52.43155233260346 23.972633286935874 -2.124161867152338 0 0 0
6998 1 1 0 55.71242258698154 21.71627615374365 -1.633306771163536 0 0 0
9912 1 2 0 57.18555260609161 21.280230374238204 -2.289158449840279 0 0 0
9914 1 2 0 55.61637408776484 23.305120140110848 -2.1100432268782954 0 0 0
9909 1 2 0 59.04707008285027 19.766376526833554 -1.3095106471270392 0 0 0
6997 1 1 0 58.64953982158594 21.322867940225926 -1.5016078404908657 0 0 0
9913 1 2 0 59.97855373061522 21.875200277905524 -2.3474924082930775 0 0 0
10001 1 2 0 58.350424784664504 24.133418779360863 -2.219365992186932 0 0 0
7033 1 1 0 61.263375871958644 22.563478037482557 -1.555871972506433 0 0 0
9964 1 2 0 62.73555203245335 22.3557807827673 -2.274051105810685 0 0 0
9965 1 2 0 61.04545167722295 24.202492350841183 -1.633879108799823 0 0 0
9871 1 2 0 64.93747739912018 19.194665608896866 -2.214253901733419 0 0 0
7032 1 1 0 65.84043313458633 20.49162650501138 -1.6475605848510844 0 0 0
9962 1 2 0 65.3012956951552 21.987097221804913 -2.1758724704403596 0 0 0
7034 1 1 0 64.12643088267296 23.055194031410082 -1.6576626216886474 0 0 0
13404 1 2 0 64.10563968074268 23.11108666507363 1.559646769449664e-07 0 0 0
13402 1 2 0 65.77493271749174 20.445309814221737 -6.179035043666134e-07 0 0 0
9963 1 2 0 67.42658680927252 20.353875544388057 -2.1616137073183794 0 0 0
9922 1 2 0 70.18381339335012 20.497077956287153 -2.2126652800054556 0 0 0
7003 1 1 0 71.5488534149421 19.702217275251698 -1.6503036060399412 0 0 0
7035 1 1 0 68.77449324678645 21.199616899933364 -1.6491243316007658 0 0 0
9967 1 2 0 68.5497981546315 22.756576890897797 -2.220647148771913 0 0 0
13373 1 2 0 71.57460001133721 19.688217757337384 -4.430446869488944e-07 0 0 0
7065 1 1 0 69.0898717489639 24.22146392959899 -1.6550097306334624 0 0 0
13405 1 2 0 68.84476001459501 21.212132704459485 -1.5628038566660274e-07 0 0 0
9921 1 2 0 72.9149852397701 20.565838171784634 -2.162176286181377 0 0 0
9872 1 2 0 77.68436615580829 18.45948756724448 -2.164993442240234 0 0 0
7004 1 1 0 74.51001782049461 20.83047737236904 -1.64817386271974 0 0 0
9873 1 2 0 75.30477903509592 19.5070822230667 -2.2440570311371397 0 0 0
9923 1 2 0 75.43123713637783 22.156164771517375 -2.173987322629442 0 0 0
13374 1 2 0 74.47673795926735 20.916572717330858 -3.689565132983495e-07 0 0 0
7036 1 1 0 76.36941166597175 23.467803165760987 -1.6491128448377577 0 0 0
13406 1 2 0 76.39046370752077 23.391816253114413 -9.070422131875e-07 0 0 0
9968 1 2 0 77.9604183463112 23.73904913711301 -2.1564247048151888 0 0 0
9874 1 2 0 80.40402546420191 18.592447731490513 -2.2304882315903938 0 0 0
7006 1 1 0 81.66938846853675 19.528946572576192 -1.6506155719359412 0 0 0
9926 1 2 0 81.4987444456775 21.098851290665024 -2.1880411494372916 0 0 0
9924 1 2 0 83.1216334332692 18.94153825729153 -2.2223564051086684 0 0 0
7037 1 1 0 81.82475698178368 22.64667477482093 -1.6492217465574772 0 0 0
9971 1 2 0 83.32984843647849 23.102894341574547 -2.2270290820158114 0 0 0
9970 1 2 0 80.6455609936183 23.69625311228541 -2.195549089591098 0 0 0
9925 1 2 0 85.8780994075745 18.953429045426855 -2.240811434575241 0 0 0
7008 1 1 0 87.40338448988574 19.217241029995467 -1.645806415686239 0 0 0
9929 1 2 0 87.90486404932878 20.689571381350127 -2.192647012728024 0 0 0
10016 1 2 0 86.04202260277518 22.550228031440582 -2.198742035614253 0 0 0
7068 1 1 0 87.57797168353105 22.207456012207484 -1.6456937453311047 0 0 0
10017 1 2 0 88.85718481220458 23.08414616146523 -2.236681730601209 0 0 0
7069 1 1 0 84.82859698715744 23.545414088335587 -1.6476968034971124 0 0 0
7071 1 1 0 89.93084038987281 24.211831945645706 -1.6508195868589082 0 0 0
13441 1 2 0 89.93362974230925 24.181836431195418 -1.6207436250794836e-07 0 0 0
9928 1 2 0 91.13068430216613 19.144170637081892 -2.232244025142347 0 0 0
7012 1 1 0 92.3883164117022 20.047891887985315 -1.65022548833088 0 0 0
9933 1 2 0 93.83204367721697 19.56522655069325 -2.315534462818917 0 0 0
9935 1 2 0 92.21564452737461 21.601842255640385 -2.1783916066306643 0 0 0
7070 1 1 0 92.73579815263638 23.08283658955666 -1.6454725849329774 0 0 0
10020 1 2 0 94.26137787180876 23.475114373637975 -2.2219662021672995 0 0 0
10019 1 2 0 91.50572910156181 24.073044195662902 -2.1933045951907006 0 0 0
13382 1 2 0 92.40156775963511 19.970028081344697 3.089913000924906e-08 0 0 0
7011 1 1 0 95.23370440724001 19.087607171303365 -1.5942213865798163 0 0 0
13381 1 2 0 95.1851908049696 19.522510493485267 -2.230433139027243e-07 0 0 0
9934 1 2 0 96.63072129299512 19.71698744454429 -2.229785152308659 0 0 0
7015 1 1 0 97.55990236714442 20.970237065327556 -1.6472533654675752 0 0 0
6600 1 1 0 100.40640204028291 19.866512400491946 -1.6509953030937496 0 0 0
9310 1 2 0 99.1231561562815 20.79466678588075 -2.205956663164676 0 0 0
9939 1 2 0 96.80717711410668 22.328144793269036 -2.215420025294719 0 0 0
12970 1 2 0 100.43606516104263 19.878469580786486 -3.9868922007535185e-07 0 0 0
7072 1 1 0 95.83881170975413 23.553636179287484 -1.6488218594988955 0 0 0
9324 1 2 0 11.4945667737858 25.0473005964153 -2.2311028170162417 0 0 0
6638 1 1 0 12.393664961282454 26.299655171705563 -1.647958754235902 0 0 0
9364 1 2 0 9.0246061578469 26.821083406412438 -2.2272557567759703 0 0 0
6637 1 1 0 10.048883645355582 27.973775537734923 -1.6440407857440598 0 0 0
9366 1 2 0 11.604733485589591 27.682459584637108 -2.176004586050522 0 0 0
13008 1 2 0 12.475952879729777 26.26941689935061 -4.1462997615815473e-07 0 0 0
9367 1 2 0 9.300068832289801 29.353503291023177 -2.1548965391509074 0 0 0
9368 1 2 0 13.925539581454373 26.154359268715876 -2.244070737132035 0 0 0