ITEM: TIMESTEP
1293
ITEM: NUMBER OF ATOMS
15504
ITEM: BOX BOUNDS pp pp pp
0.0000000000000000e+00 2.0388362119600907e+02
0.0000000000000000e+00 1.7689492417543781e+02
-1.0000000000000000e+02 1.0000000000000000e+02
ITEM: ATOMS id type element x y z v_uncoordination
1 1 Si 109.914 2.80025 1.61522 0
2 1 Si 112.869 3.9299 1.62622 0
3 1 Si 107.508 4.93803 1.64071 0
4 1 Si 113.782 6.91609 1.62714 0
5 1 Si 108.393 8.08382 1.63934 0
6 1 Si 111.461 9.02477 1.63583 0
7 1 Si 110.551 176.536 1.62695 0
8 1 Si 115.027 1.68434 1.63046 0
9 1 Si 113.649 175.71 1.61766 0
10 1 Si 104.353 4.15345 1.62788 0
11 1 Si 103.384 1.09541 1.6381 0
12 1 Si 105.238 175.412 1.60584 0
13 1 Si 108.262 174.395 1.62669 0
14 1 Si 118.021 2.7434 1.63245 0
15 1 Si 119.101 5.8518 1.6375 0
16 1 Si 116.749 8.08607 1.61513 0
17 1 Si 119.878 0.176448 1.62754 0
18 1 Si 124.342 3.84021 1.63729 0
19 1 Si 122.332 6.49388 1.63029 0
20 1 Si 123.018 0.917886 1.64167 0
21 1 Si 115.461 173.086 1.63736 0
22 1 Si 118.551 174.096 1.62591 0
23 1 Si 127.659 3.73494 1.63949 0
24 1 Si 128.809 6.78476 1.63943 0
25 1 Si 123.58 9.59052 1.64276 0
26 1 Si 126.957 9.59837 1.63162 0
27 1 Si 129.752 1.0415 1.63694 0
28 1 Si 124.988 175.356 1.63182 0
29 1 Si 128.162 175.101 1.61708 0
30 1 Si 134.109 4.06725 1.62761 0
31 1 Si 132.053 6.5959 1.63287 0
32 1 Si 133.123 0.978752 1.64186 0
33 1 Si 137.171 5.10305 1.63086 0
34 1 Si 136.779 8.35025 1.63654 0
35 1 Si 133.653 9.31281 1.63401 0
36 1 Si 139.704 2.97257 1.6433 0
37 1 Si 138.856 176.348 1.62978 0
38 1 Si 135.418 175.313 1.63895 0
39 1 Si 142.6 4.9628 1.63139 0
40 1 Si 143.541 8.32397 1.61271 0
41 1 Si 138.668 10.9435 1.62819 0
42 1 Si 141.885 11.0983 1.62337 0
43 1 Si 146.319 0.12238 1.61444 0
44 1 Si 145.493 3.47134 1.61789 0
45 1 Si 144.687 173.978 1.62137 0
46 1 Si 141.352 173.901 1.62535 0
47 1 Si 150.548 5.47185 1.61188 0
48 1 Si 151.398 2.33605 1.62398 0
49 1 Si 149.611 176.512 1.61933 0
50 1 Si 147.482 6.1986 1.6232 0
51 1 Si 155.424 5.70235 1.62399 0
52 1 Si 154.543 2.61707 1.61604 0
53 1 Si 152.931 7.65909 1.63041 0
54 1 Si 149.264 170.564 1.61952 0
55 1 Si 146.11 170.717 1.62057 0
56 1 Si 150.846 173.44 1.62059 0
57 1 Si 158.556 6.03448 1.62467 0
58 1 Si 159.253 2.83738 1.62035 0
59 1 Si 164.088 5.00527 1.62662 0
60 1 Si 162.336 2.1934 1.62204 0
61 1 Si 163.634 8.27001 1.61453 0
62 1 Si 160.402 8.72999 1.62208 0
63 1 Si 156.923 0.545404 1.63373 0
64 1 Si 167.13 4.26529 1.61586 0
65 1 Si 168.165 1.26227 1.62449 0
66 1 Si 163.366 175.954 1.61183 0
67 1 Si 166.568 175.468 1.61881 0
68 1 Si 169.518 6.4079 1.63574 0
69 1 Si 169.172 9.63568 1.63343 0
70 1 Si 165.927 10.7179 1.62192 0
71 1 Si 172.102 4.58579 1.6104 0
72 1 Si 171.263 1.55725 1.61269 0
73 1 Si 175.258 4.24352 1.63084 0
74 1 Si 177.035 6.78829 1.61721 0
75 1 Si 175.028 9.49542 1.61779 0
76 1 Si 172.107 11.2064 1.63658 0
77 1 Si 176.427 1.2893 1.60817 0
78 1 Si 173.721 176.582 1.62366 0
79 1 Si 180.367 6.26195 1.62664 0
80 1 Si 180.505 9.43286 1.62897 0
81 1 Si 177.741 11.0201 1.63449 0
82 1 Si 182.967 3.9967 1.63553 0
83 1 Si 182.207 0.578745 1.62588 0
84 1 Si 179.019 176.354 1.63462 0
85 1 Si 186.379 5.07098 1.63331 0
86 1 Si 187.804 8.33248 1.61541 0
87 1 Si 182.947 11.3717 1.62626 0
88 1 Si 186.097 11.1168 1.63884 0
89 1 Si 188.68 2.51521 1.63348 0
90 1 Si 187.926 175.934 1.62472 0
91 1 Si 184.717 175.149 1.62412 0
92 1 Si 191.934 3.48103 1.62635 0
93 1 Si 193.364 6.83157 1.63176 0
94 1 Si 191.065 9.26677 1.61943 0
95 1 Si 193.371 0.419986 1.62976 0
96 1 Si 199.338 6.39989 1.63473 0
97 1 Si 198.709 3.12015 1.61315 0
98 1 Si 196.616 8.25615 1.63299 0
99 1 Si 196.506 0.679444 1.61838 0
100 1 Si 189.771 172.845 1.62697 0
101 1 Si 192.788 173.968 1.6194 0
102 1 Si 1.16857 5.38724 1.62809 0
103 1 Si 202.561 7.48833 1.59458 0
104 1 Si 4.24802 6.42597 1.61707 0
105 1 Si 0.9345 9.8429 1.62638 0
106 1 Si 4.15139 9.60715 1.60413 0
107 1 Si 0.552477 2.25216 1.64496 0
108 1 Si 201.341 1.30865 1.61914 0
109 1 Si 7.31228 5.29257 1.63147 0
110 1 Si 8.66633 2.07728 1.63748 0
111 1 Si 2.96957 0.0560001 1.628 0
112 1 Si 6.27499 176.526 1.6271 0
113 1 Si 106.213 10.4423 1.64553 0
114 1 Si 103.046 9.53094 1.6486 0
115 1 Si 102 6.42714 1.63977 0
116 1 Si 116.135 11.2848 1.62987 0
117 1 Si 121.797 12.5221 1.63051 0
118 1 Si 118.541 13.4669 1.62667 0
119 1 Si 128.602 12.5022 1.62228 0
120 1 Si 131.931 12.1347 1.62703 0
121 1 Si 146.675 9.41124 1.60273 0
122 1 Si 153.185 10.8763 1.6277 0
123 1 Si 147.944 12.6034 1.63944 0
124 1 Si 151.093 13.3955 1.61783 0
125 1 Si 159.218 11.7106 1.62019 0
126 1 Si 156.054 12.2837 1.62377 0
127 1 Si 177.268 14.0807 1.62223 0
128 1 Si 179.756 15.8991 1.61741 0
129 1 Si 182.417 14.4578 1.62362 0
130 1 Si 192.083 12.4342 1.65176 0
131 1 Si 187.059 14.1923 1.58727 0
132 1 Si 191.649 15.6714 1.63162 0
133 1 Si 188.827 16.8675 1.62445 0
134 1 Si 197.542 11.4913 1.59182 0
135 1 Si 195.049 13.3525 1.62515 0
136 1 Si 0.445877 12.8452 1.61821 0
137 1 Si 202.021 14.825 1.62626 0
138 1 Si 199.033 14.403 1.63021 0
139 1 Si 6.95451 11.1504 1.62982 0
140 1 Si 8.66191 8.33653 1.61021 0
141 1 Si 112.894 11.8749 1.61615 0
142 1 Si 107.472 13.4756 1.6298 0
143 1 Si 110.698 14.2423 1.63632 0
144 1 Si 123.605 15.2801 1.61043 0
145 1 Si 126.849 15.3439 1.63347 0
146 1 Si 137.163 13.8193 1.61354 0
147 1 Si 134.001 14.5729 1.62666 0
148 1 Si 161.106 14.3798 1.6061 0
149 1 Si 155.79 15.416 1.62499 0
150 1 Si 158.764 16.7159 1.63277 0
151 1 Si 164.436 13.8114 1.62777 0
152 1 Si 172.038 14.5614 1.63144 0
153 1 Si 166.379 16.3928 1.61665 0
154 1 Si 169.569 16.6357 1.62111 0
155 1 Si 174.871 16.104 1.64941 0
156 1 Si 2.29129 15.2945 1.60891 0
157 1 Si 203.815 17.3009 1.61133 0
158 1 Si 105.213 15.7829 1.64079 0
159 1 Si 102.122 14.7625 1.62125 0
160 1 Si 100.76 11.8101 1.63813 0
161 1 Si 117.596 16.6782 1.61017 0
162 1 Si 119.666 19.2162 1.61518 0
163 1 Si 122.759 18.4557 1.62112 0
164 1 Si 143.109 14.0922 1.59451 0
165 1 Si 138.527 16.7052 1.63215 0
166 1 Si 141.656 16.8721 1.60872 0
167 1 Si 146.039 15.2293 1.59268 0
168 1 Si 152.698 16.3018 1.6284 0
169 1 Si 176.131 19.1243 1.62981 0
170 1 Si 179.343 18.9647 1.62895 0
171 1 Si 184.815 16.3834 1.61424 0
172 1 Si 195.655 16.3949 1.61871 0
173 1 Si 193.373 18.4439 1.58492 0
174 1 Si 198.502 17.5818 1.60327 0
175 1 Si 5.07376 16.5951 1.6313 0
176 1 Si 7.5389 14.4284 1.62346 0
177 1 Si 111.736 17.3124 1.64433 0
178 1 Si 109.391 19.4872 1.63143 0
179 1 Si 106.294 18.8045 1.63206 0
180 1 Si 114.801 18.3355 1.64465 0
181 1 Si 133.367 17.7563 1.60929 0
182 1 Si 127.69 18.5378 1.62199 0
183 1 Si 130.717 19.6781 1.63322 0
184 1 Si 149.853 56.9996 1.62959 0
185 1 Si 152.588 54.8056 1.63584 0
186 1 Si 146.587 55.9865 1.63355 0
187 1 Si 148.702 50.2994 1.62913 0
188 1 Si 151.914 51.4469 1.62738 0
189 1 Si 146.124 52.5611 1.64839 0
190 1 Si 150.512 60.2843 1.62133 0
191 1 Si 155.923 55.9094 1.63073 0
192 1 Si 156.127 59.2116 1.63351 0
193 1 Si 153.602 61.2178 1.62791 0
194 1 Si 143.923 58.2451 1.64766 0
195 1 Si 144.007 61.7422 1.61477 0
196 1 Si 149.24 63.3234 1.62217 0
197 1 Si 146.206 64.2554 1.61931 0
198 1 Si 136.336 19.0156 1.61207 0
199 1 Si 166.463 19.5627 1.61195 0
200 1 Si 158.666 19.9586 1.63361 0
201 1 Si 161.395 21.9418 1.60178 0
202 1 Si 164.706 22.1808 1.62108 0
203 1 Si 169.65 19.8656 1.61453 0
204 1 Si 175.108 22.2625 1.62874 0
205 1 Si 171.691 22.5252 1.62517 0
206 1 Si 185.036 19.5057 1.63531 0
207 1 Si 188.192 20.0685 1.64551 0
208 1 Si 0.39869 20.3712 1.61827 0
209 1 Si 198.636 20.7483 1.6363 0
210 1 Si 201.57 22.3555 1.64446 0
211 1 Si 3.66264 19.6371 1.62855 0
212 1 Si 115.209 21.5607 1.62983 0
213 1 Si 118.356 22.2157 1.62354 0
214 1 Si 125.179 20.664 1.61648 0
215 1 Si 144.57 18.0502 1.64013 0
216 1 Si 145.728 20.9789 1.61759 0
217 1 Si 136.773 22.168 1.62877 0
218 1 Si 139.563 23.8462 1.61906 0
219 1 Si 142.947 23.1014 1.6141 0
220 1 Si 152.364 19.5806 1.63802 0
221 1 Si 149.29 21.2296 1.60312 0
222 1 Si 155.475 21.1137 1.62757 0
223 1 Si 182.03 20.7608 1.63291 0
224 1 Si 195.319 21.0544 1.63786 0
225 1 Si 189.9 22.9654 1.62496 0
226 1 Si 193.4 23.6411 1.61312 0
227 1 Si 109.743 22.6419 1.63693 0
228 1 Si 112.739 23.6764 1.64188 0
229 1 Si 131.023 22.9708 1.62625 0
230 1 Si 125.315 24.0264 1.64369 0
231 1 Si 128.503 25.1525 1.63622 0
232 1 Si 134.081 24.0054 1.61844 0
233 1 Si 161.105 25.1833 1.61078 0
234 1 Si 155.638 24.3448 1.62965 0
235 1 Si 158.149 26.4034 1.61471 0
236 1 Si 166.46 25.108 1.62761 0
237 1 Si 163.72 27.1779 1.61298 0
238 1 Si 181.353 23.8566 1.61153 0
239 1 Si 177.984 24.5065 1.59658 0
240 1 Si 170.129 25.5053 1.60307 0
241 1 Si 184.162 25.839 1.60879 0
242 1 Si 187.747 25.5867 1.64062 0
243 1 Si 201.536 25.7413 1.60685 0
244 1 Si 3.11078 25.3907 1.64574 0
245 1 Si 5.40434 22.2892 1.62892 0
246 1 Si 0.322922 27.7445 1.60537 0
247 1 Si 104.997 21.7266 1.61874 0
248 1 Si 101.959 22.3549 1.62752 0
249 1 Si 99.7837 16.8286 1.64037 0
250 1 Si 100.103 19.8833 1.61561 0
251 1 Si 106.967 24.2199 1.61573 0
252 1 Si 119.237 25.3706 1.64194 0
253 1 Si 112.951 26.8889 1.63622 0
254 1 Si 116.43 27.4335 1.64367 0
255 1 Si 122.599 26.1546 1.63053 0
256 1 Si 138.154 26.8856 1.62447 0
257 1 Si 134.869 27.1304 1.62145 0
258 1 Si 144.59 25.8722 1.62353 0
259 1 Si 143.249 28.7681 1.62248 0
260 1 Si 140.117 29.4432 1.63724 0
261 1 Si 150.077 24.4346 1.62304 0
262 1 Si 147.707 26.537 1.63121 0
263 1 Si 152.939 26.0335 1.62326 0
264 1 Si 178.996 27.7514 1.61776 0
265 1 Si 182.471 28.6864 1.6037 0
266 1 Si 195.378 26.5378 1.62525 0
267 1 Si 189.716 28.2718 1.62588 0
268 1 Si 192.996 28.8083 1.62217 0
269 1 Si 198.751 27.6851 1.62428 0
270 1 Si 5.49568 27.3053 1.61291 0
271 1 Si 8.24454 25.818 1.5937 0
272 1 Si 8.67948 20.7516 1.60057 0
273 1 Si 10.2773 23.4313 1.61026 0
274 1 Si 106.237 27.3839 1.63355 0
275 1 Si 109.767 28.5529 1.62751 0
276 1 Si 129.222 28.4163 1.64322 0
277 1 Si 123.272 29.4522 1.63922 0
278 1 Si 126.547 30.4899 1.65198 0
279 1 Si 132.478 29.436 1.63356 0
280 1 Si 162.599 30.569 1.61195 0
281 1 Si 157.045 29.4822 1.62245 0
282 1 Si 159.181 32.0231 1.63285 0
283 1 Si 172.977 27.8542 1.6394 0
284 1 Si 170.838 30.0726 1.64587 0
285 1 Si 165.001 32.834 1.62777 0
286 1 Si 167.976 31.4241 1.61565 0
287 1 Si 176.388 29.7434 1.63421 0
288 1 Si 188.154 31.1293 1.62314 0
289 1 Si 184.788 31.3214 1.63825 0
290 1 Si 199.556 31.048 1.61239 0
291 1 Si 203.038 31.2625 1.6267 0
292 1 Si 7.06661 29.9156 1.62519 0
293 1 Si 9.83442 28.4871 1.59085 0
294 1 Si 102.36 27.8777 1.62325 0
295 1 Si 100.397 25.1606 1.61946 0
296 1 Si 117.19 30.6071 1.6406 0
297 1 Si 120.551 31.5388 1.63469 0
298 1 Si 145.451 31.1355 1.63238 0
299 1 Si 139.419 32.6398 1.61777 0
300 1 Si 145.067 34.4024 1.62811 0
301 1 Si 141.789 35.0143 1.62356 0
302 1 Si 148.309 29.7341 1.62226 0
303 1 Si 153.724 29.2424 1.62473 0
304 1 Si 151.16 31.3662 1.63446 0
305 1 Si 172.999 32.2722 1.5851 0
306 1 Si 178.008 32.9903 1.6277 0
307 1 Si 175.203 34.3567 1.64047 0
308 1 Si 193.65 32.0143 1.61969 0
309 1 Si 190.609 33.3381 1.64596 0
310 1 Si 196.789 33.3278 1.62692 0
311 1 Si 110.703 31.7514 1.62488 0
312 1 Si 104.62 34.36 1.61203 0
313 1 Si 101.203 33.4233 1.62289 0
314 1 Si 108.231 34.1309 1.62216 0
315 1 Si 99.8116 30.3698 1.63238 0
316 1 Si 114.25 32.4117 1.64115 0
317 1 Si 133.253 32.6789 1.63151 0
318 1 Si 127.299 33.7466 1.64536 0
319 1 Si 130.585 34.7244 1.63347 0
320 1 Si 136.397 33.9228 1.63093 0
321 1 Si 151.011 34.7591 1.62375 0
322 1 Si 147.863 36.4285 1.6222 0
323 1 Si 164.358 36.2665 1.6003 0
324 1 Si 157.424 35.304 1.62236 0
325 1 Si 158.893 38.3597 1.61753 0
326 1 Si 162.141 39.1147 1.62741 0
327 1 Si 170.207 33.5438 1.59676 0
328 1 Si 170.182 36.5918 1.61655 0
329 1 Si 167.241 37.6923 1.62952 0
330 1 Si 184.035 34.5151 1.61627 0
331 1 Si 180.765 35.1639 1.62361 0
332 1 Si 190 36.5781 1.63694 0
333 1 Si 186.437 36.9736 1.61783 0
334 1 Si 1.03671 34.4482 1.61908 0
335 1 Si 4.26743 34.4068 1.59331 0
336 1 Si 7.09917 32.941 1.62725 0
337 1 Si 103.616 37.4391 1.61851 0
338 1 Si 100.552 38.4787 1.63071 0
339 1 Si 98.7369 35.8693 1.60779 0
340 1 Si 121.349 34.814 1.63585 0
341 1 Si 115.535 35.4393 1.62115 0
342 1 Si 118.593 36.751 1.61951 0
343 1 Si 124.635 35.8469 1.6298 0
344 1 Si 137.102 37.125 1.61849 0
345 1 Si 140.305 37.9542 1.62057 0
346 1 Si 154.06 36.3045 1.63283 0
347 1 Si 173.353 36.9244 1.62735 0
348 1 Si 13.7636 6.83349 1.6212 0
349 1 Si 11.653 9.29374 1.62531 0
350 1 Si 14.6364 3.71553 1.62843 0
351 1 Si 12.2859 1.19639 1.6202 0
352 1 Si 181.112 38.4971 1.61982 0
353 1 Si 174.931 39.5836 1.61552 0
354 1 Si 178.165 40.0541 1.62172 0
355 1 Si 15.6916 9.30822 1.6199 0
356 1 Si 15.404 12.4961 1.62925 0
357 1 Si 12.2982 12.5646 1.62646 0
358 1 Si 18.0506 3.63588 1.62565 0
359 1 Si 19.5688 0.768316 1.60667 0
360 1 Si 17.5071 174.977 1.61508 0
361 1 Si 14.0246 174.923 1.62982 0
362 1 Si 196.476 36.7625 1.62203 0
363 1 Si 193.24 38.223 1.60838 0
364 1 Si 20.0764 6.21919 1.61386 0
365 1 Si 18.6845 8.99038 1.61252 0
366 1 Si 22.9476 0.307751 1.62313 0
367 1 Si 25.5983 5.75554 1.61821 0
368 1 Si 25.8738 2.38013 1.635 0
369 1 Si 22.965 7.55093 1.63675 0
370 1 Si 19.6781 172.448 1.6263 0
371 1 Si 22.7867 173.854 1.61979 0
372 1 Si 1.35755 38.02 1.62259 0
373 1 Si 199.195 38.9482 1.5927 0
374 1 Si 202.537 39.9401 1.62288 0
375 1 Si 31.582 3.89678 1.60913 0
376 1 Si 34.8497 4.37931 1.60822 0
377 1 Si 30.8077 7.01275 1.62828 0
378 1 Si 33.2514 9.09264 1.63595 0
379 1 Si 36.0291 7.51292 1.63322 0
380 1 Si 29.2478 1.46624 1.64067 0
381 1 Si 35.8683 1.27464 1.61101 0
382 1 Si 34.0409 175.281 1.61384 0
383 1 Si 30.5973 175.253 1.62507 0
384 1 Si 27.8477 8.14766 1.63128 0
385 1 Si 41.3686 3.86658 1.60343 0
386 1 Si 43.279 1.41806 1.60993 0
387 1 Si 38.9825 1.81296 1.63551 0
388 1 Si 40.9424 176.302 1.60899 0
389 1 Si 5.97529 37.0913 1.62127 0
390 1 Si 9.15202 36.9526 1.63443 0
391 1 Si 10.1808 33.9878 1.6175 0
392 1 Si 48.2561 3.86138 1.63839 0
393 1 Si 51.3003 2.993 1.60993 0
394 1 Si 46.5948 6.58958 1.60722 0
395 1 Si 54.2531 3.992 1.62203 0
396 1 Si 54.634 6.98615 1.62098 0
397 1 Si 47.1172 9.79359 1.62575 0
398 1 Si 52.7125 9.38156 1.58835 0
399 1 Si 50.0594 11.0796 1.63359 0
400 1 Si 46.3555 1.30593 1.62993 0
401 1 Si 52.4503 0.0434957 1.61894 0
402 1 Si 50.3657 174.631 1.63271 0
403 1 Si 47.295 175.232 1.63914 0
404 1 Si 43.3773 6.28994 1.61986 0
405 1 Si 56.9884 2.36635 1.61775 0
406 1 Si 55.6142 176.434 1.64037 0
407 1 Si 110.198 36.863 1.62848 0
408 1 Si 105.673 39.7725 1.63452 0
409 1 Si 108.783 39.6435 1.63947 0
410 1 Si 67.9787 1.90456 1.61774 0
411 1 Si 65.143 3.62241 1.60962 0
412 1 Si 70.3137 4.16013 1.62808 0
413 1 Si 68.6926 7.06446 1.62157 0
414 1 Si 65.4245 6.93174 1.61562 0
415 1 Si 68.4092 175.514 1.64802 0
416 1 Si 62.4558 1.76221 1.62648 0
417 1 Si 65.6205 173.683 1.64574 0
418 1 Si 62.6474 175.223 1.63116 0
419 1 Si 57.3657 8.47337 1.62561 0
420 1 Si 60.2209 7.19504 1.6138 0
421 1 Si 59.8891 3.82868 1.62488 0
422 1 Si 113.352 37.76 1.6229 0
423 1 Si 73.6454 3.69576 1.62515 0
424 1 Si 75.7651 1.06408 1.62841 0
425 1 Si 74.6117 174.852 1.62406 0
426 1 Si 71.3954 174.031 1.6314 0
427 1 Si 75.3554 6.47458 1.61904 0
428 1 Si 73.7198 9.18278 1.62449 0
429 1 Si 70.5353 9.68034 1.6246 0
430 1 Si 79.1001 1.70962 1.60661 0
431 1 Si 80.5752 4.68708 1.62283 0
432 1 Si 78.5573 7.24519 1.61478 0
433 1 Si 81.7533 176.66 1.63548 0
434 1 Si 84.5798 1.38627 1.61679 0
435 1 Si 83.8815 4.55704 1.60446 0
436 1 Si 81.6364 173.428 1.62741 0
437 1 Si 79.3627 171.067 1.62899 0
438 1 Si 76.3308 172.05 1.61208 0
439 1 Si 131.468 37.9192 1.63211 0
440 1 Si 134.59 39.1724 1.63044 0
441 1 Si 87.7568 0.521068 1.64337 0
442 1 Si 89.1304 3.55652 1.61956 0
443 1 Si 86.8031 6.06629 1.62874 0
444 1 Si 89.1148 174.235 1.62685 0
445 1 Si 84.0644 171.447 1.62757 0
446 1 Si 87.1779 171.585 1.61858 0
447 1 Si 125.66 39.0158 1.63321 0
448 1 Si 128.89 39.8821 1.62374 0
449 1 Si 94.8087 1.2378 1.61559 0
450 1 Si 92.4529 3.93043 1.63567 0
451 1 Si 95.0889 174.519 1.62804 0
452 1 Si 92.2673 172.861 1.6279 0
453 1 Si 97.917 2.39307 1.62844 0
454 1 Si 98.7768 5.60355 1.64868 0
455 1 Si 93.1419 7.32154 1.64284 0
456 1 Si 96.445 7.99012 1.65516 0
457 1 Si 100.292 0.167485 1.61753 0
458 1 Si 100.46 173.811 1.62761 0
459 1 Si 97.802 172.065 1.62612 0
460 1 Si 153.561 39.5896 1.62769 0
461 1 Si 156.6 40.7839 1.60977 0
462 1 Si 103.495 172.756 1.60792 0
463 1 Si 167.189 40.7534 1.60992 0
464 1 Si 162.638 42.7597 1.62883 0
465 1 Si 165.639 43.4183 1.63376 0
466 1 Si 19.8004 11.8812 1.59674 0
467 1 Si 17.9954 14.4101 1.60551 0
468 1 Si 22.6783 10.779 1.63431 0
469 1 Si 184.412 39.6391 1.62463 0
470 1 Si 27.4856 11.45 1.62828 0
471 1 Si 24.7001 13.1601 1.61202 0
472 1 Si 33.0562 12.2975 1.63539 0
473 1 Si 30.0299 13.4904 1.62834 0
474 1 Si 4.44926 39.8572 1.62464 0
475 1 Si 41.8615 9.00343 1.60072 0
476 1 Si 38.6891 9.47054 1.63242 0
477 1 Si 118.191 40.0902 1.62678 0
478 1 Si 123.838 41.7532 1.61024 0
479 1 Si 120.491 42.5692 1.62842 0
480 1 Si 114.92 40.6684 1.61656 0
481 1 Si 44.1663 11.2479 1.58959 0
482 1 Si 55.4671 10.9039 1.60014 0
483 1 Si 141.357 41.1503 1.63482 0
484 1 Si 147.565 39.9307 1.63623 0
485 1 Si 144.699 42.1105 1.63559 0
486 1 Si 62.9164 9.17664 1.61967 0
487 1 Si 135.434 42.3919 1.638 0
488 1 Si 138.716 43.3732 1.64082 0
489 1 Si 150.648 41.3502 1.63591 0
490 1 Si 78.8998 10.5698 1.62587 0
491 1 Si 75.7147 11.6355 1.60042 0
492 1 Si 87.3663 9.43513 1.62098 0
493 1 Si 81.5932 12.654 1.61604 0
494 1 Si 85.05 12.1843 1.60966 0
495 1 Si 90.7905 9.96494 1.62463 0
496 1 Si 172.689 41.8639 1.61078 0
497 1 Si 169.658 42.5799 1.62648 0
498 1 Si 177.649 43.1984 1.62116 0
499 1 Si 174.618 44.2625 1.62167 0
500 1 Si 10.6774 15.4252 1.61148 0
501 1 Si 194.147 41.4763 1.61982 0
502 1 Si 185.555 42.8853 1.63471 0
503 1 Si 188.668 44.4198 1.61407 0
504 1 Si 192.098 44.156 1.62679 0
505 1 Si 197.523 41.7512 1.59938 0
506 1 Si 202.955 43.2792 1.60883 0
507 1 Si 199.782 44.0887 1.62207 0
508 1 Si 38.7534 12.6976 1.61268 0
509 1 Si 35.7971 14.0921 1.63764 0
510 1 Si 104.799 42.7791 1.63439 0
511 1 Si 101.776 43.7401 1.62707 0
512 1 Si 99.3502 41.5546 1.618 0
513 1 Si 110.004 42.5448 1.63526 0
514 1 Si 107.483 44.431 1.65621 0
515 1 Si 51.1537 14.1297 1.61561 0
516 1 Si 54.4768 13.8397 1.61846 0
517 1 Si 113.085 43.3973 1.64759 0
518 1 Si 69.774 12.7999 1.6207 0
519 1 Si 63.3062 12.5605 1.63214 0
520 1 Si 66.5138 13.8755 1.62391 0
521 1 Si 129.612 43.058 1.6234 0
522 1 Si 126.398 43.8971 1.61457 0
523 1 Si 132.747 44.4328 1.64893 0
524 1 Si 73.0539 13.6539 1.62368 0
525 1 Si 150.716 44.6907 1.63897 0
526 1 Si 145.062 45.5655 1.64842 0
527 1 Si 148.164 46.8974 1.64311 0
528 1 Si 97.5018 11.1228 1.63313 0
529 1 Si 91.8474 13.2282 1.63609 0
530 1 Si 95.1923 13.5022 1.61864 0
531 1 Si 156.47 44.019 1.64171 0
532 1 Si 153.738 45.8399 1.62641 0
533 1 Si 158.845 46.105 1.59728 0
534 1 Si 162.044 46.2382 1.61218 0
535 1 Si 168.082 45.2804 1.61253 0
536 1 Si 183.122 45.1877 1.60806 0
537 1 Si 179.906 45.3583 1.62653 0
538 1 Si 20.2627 16.8039 1.6294 0
539 1 Si 11.5368 18.6605 1.63553 0
540 1 Si 18.8555 19.7316 1.62689 0
541 1 Si 14.906 19.8909 1.61174 0
542 1 Si 188.409 47.7413 1.64203 0
543 1 Si 183.492 48.4067 1.61518 0
544 1 Si 186.112 50.1628 1.62923 0
545 1 Si 23.7252 16.3283 1.62657 0
546 1 Si 29.6871 16.7193 1.63516 0
547 1 Si 26.6957 18.079 1.61645 0
548 1 Si 6.83183 42.6445 1.61974 0
549 1 Si 0.969083 46.0452 1.6232 0
550 1 Si 4.1291 47.374 1.61596 0
551 1 Si 7.11959 46.1249 1.63015 0
552 1 Si 41.9456 13.6525 1.6274 0
553 1 Si 11.2598 39.3085 1.63673 0
554 1 Si 10.139 42.2932 1.63051 0
555 1 Si 42.3605 16.8637 1.63562 0
556 1 Si 49.455 16.945 1.63346 0
557 1 Si 45.935 17.5522 1.62099 0
558 1 Si 60.7168 14.8786 1.61882 0
559 1 Si 57.2471 15.5728 1.60772 0
560 1 Si 119.58 45.9333 1.63206 0
561 1 Si 125.536 46.9511 1.62366 0
562 1 Si 122.336 47.732 1.62228 0
563 1 Si 113.542 46.6955 1.62822 0
564 1 Si 116.678 47.9677 1.62896 0
565 1 Si 65.9491 17.1038 1.6166 0
566 1 Si 62.6722 17.4969 1.61993 0
567 1 Si 139.282 46.7042 1.6479 0
568 1 Si 142.48 47.842 1.64931 0
569 1 Si 74.0904 16.6325 1.61932 0
570 1 Si 80.8172 15.9629 1.61451 0
571 1 Si 77.514 17.0711 1.63159 0
572 1 Si 86.3514 15.3818 1.6189 0
573 1 Si 89.8161 16.0552 1.62703 0
574 1 Si 173.112 47.0451 1.64039 0
575 1 Si 169.957 47.7479 1.63599 0
576 1 Si 178.53 48.2601 1.62285 0
577 1 Si 175.474 49.1116 1.64504 0
578 1 Si 193.511 47.2502 1.61173 0
579 1 Si 191.09 49.4279 1.6404 0
580 1 Si 199.246 47.2498 1.61819 0
581 1 Si 196.41 48.8775 1.65526 0
582 1 Si 35.5782 17.3269 1.61779 0
583 1 Si 32.4561 18.5922 1.63394 0
584 1 Si 202.344 48.1464 1.60783 0
585 1 Si 38.7428 18.472 1.60868 0
586 1 Si 107.635 47.5747 1.63694 0
587 1 Si 110.775 48.7351 1.63557 0
588 1 Si 104.513 48.7568 1.63253 0
589 1 Si 101.534 46.9733 1.64092 0
590 1 Si 55.5475 18.471 1.62231 0
591 1 Si 52.1498 19.0492 1.63243 0
592 1 Si 133.421 47.7386 1.63597 0
593 1 Si 127.659 49.4026 1.6207 0
594 1 Si 130.911 49.9774 1.63495 0
595 1 Si 136.642 48.8474 1.64384 0
596 1 Si 68.1392 19.6314 1.64494 0
597 1 Si 71.3985 18.7091 1.62813 0
598 1 Si 83.8276 17.7097 1.6306 0
599 1 Si 157.498 49.02 1.62239 0
600 1 Si 154.269 49.0576 1.63598 0
601 1 Si 162.777 49.6255 1.6204 0
602 1 Si 159.827 51.2174 1.6226 0
603 1 Si 96.6264 16.3427 1.6415 0
604 1 Si 168.763 50.6926 1.61339 0
605 1 Si 165.564 51.5892 1.63234 0
606 1 Si 28.1996 21.0893 1.61063 0
607 1 Si 22.0824 21.7104 1.60879 0
608 1 Si 25.5498 22.9091 1.62416 0
609 1 Si 180.919 50.2934 1.63201 0
610 1 Si 31.5819 21.746 1.62104 0
611 1 Si 36.5626 21.347 1.57127 0
612 1 Si 42.5759 21.0147 1.56431 0
613 1 Si 39.3978 22.1434 1.64346 0
614 1 Si 45.6658 20.6928 1.61825 0
615 1 Si 190.828 52.7436 1.62518 0
616 1 Si 185.72 53.6247 1.63032 0
617 1 Si 188.546 55.234 1.62254 0
618 1 Si 202.912 51.1986 1.62284 0
619 1 Si 2.08388 51.8841 1.62863 0
620 1 Si 4.93178 50.6174 1.62558 0
621 1 Si 61.2939 20.4126 1.62555 0
622 1 Si 57.9478 20.7445 1.63754 0
623 1 Si 122.252 50.9349 1.63815 0
624 1 Si 116.726 51.4795 1.63383 0
625 1 Si 119.71 53.0485 1.63879 0
626 1 Si 125.372 51.6908 1.62471 0
627 1 Si 66.8642 22.8869 1.62195 0
628 1 Si 63.5351 22.8936 1.62275 0
629 1 Si 76.7837 20.1202 1.6326 0
630 1 Si 73.6616 20.8511 1.63314 0
631 1 Si 84.4448 21.2479 1.63514 0
632 1 Si 78.6469 22.6415 1.62969 0
633 1 Si 81.7779 23.3727 1.61938 0
634 1 Si 142.997 51.2451 1.65 0
635 1 Si 137.251 52.1767 1.64507 0
636 1 Si 140.39 53.4372 1.64846 0
637 1 Si 91.5991 19.0776 1.61893 0
638 1 Si 87.533 23.048 1.61845 0
639 1 Si 90.9572 22.3528 1.63361 0
640 1 Si 94.8687 18.9879 1.61756 0
641 1 Si 174.674 52.1331 1.64011 0
642 1 Si 171.453 52.5687 1.62302 0
643 1 Si 180.484 53.4377 1.63098 0
644 1 Si 177.308 54.0398 1.62629 0
645 1 Si 13.4513 22.7973 1.61354 0
646 1 Si 196.253 52.189 1.61022 0
647 1 Si 193.67 54.0672 1.61456 0
648 1 Si 15.0133 25.4761 1.62576 0
649 1 Si 18.1588 26.0072 1.60247 0
650 1 Si 21.1383 24.7226 1.61704 0
651 1 Si 201.107 53.8139 1.6308 0
652 1 Si 198.153 54.8277 1.63464 0
653 1 Si 34.2899 23.9128 1.60901 0
654 1 Si 110.909 52.0791 1.63319 0
655 1 Si 107.915 53.7359 1.62615 0
656 1 Si 104.717 52.0441 1.64139 0
657 1 Si 41.8946 24.2819 1.63299 0
658 1 Si 38.6887 25.4324 1.54333 0
659 1 Si 114.006 53.5989 1.64139 0
660 1 Si 51.251 22.1783 1.62801 0
661 1 Si 48.0826 22.7697 1.64469 0
662 1 Si 131.556 53.2386 1.64289 0
663 1 Si 125.916 54.7774 1.62083 0
664 1 Si 129.067 55.3988 1.63964 0
665 1 Si 56.7598 23.7421 1.63684 0
666 1 Si 53.575 24.4832 1.63557 0
667 1 Si 134.682 54.3278 1.64685 0
668 1 Si 73.189 23.9036 1.60827 0
669 1 Si 68.1464 26.187 1.61725 0
670 1 Si 71.3597 26.4921 1.63985 0
671 1 Si 159.127 54.4547 1.62194 0
672 1 Si 97.2173 21.0565 1.63744 0
673 1 Si 165.258 54.9166 1.62721 0
674 1 Si 162.124 56.0565 1.61563 0
675 1 Si 12.9198 27.9441 1.61914 0
676 1 Si 17.5664 29.1708 1.61204 0
677 1 Si 14.6611 30.4983 1.6228 0
678 1 Si 170.931 55.6191 1.64241 0
679 1 Si 168.003 56.8239 1.62953 0
680 1 Si 26.893 25.9805 1.60941 0
681 1 Si 23.7515 26.6013 1.61768 0
682 1 Si 182.935 55.6334 1.62331 0
683 1 Si 194.223 57.2307 1.62076 0
684 1 Si 189.058 58.6419 1.60689 0
685 1 Si 192.168 59.6226 1.61413 0
686 1 Si 34.9381 27.5815 1.62145 0
687 1 Si 29.1745 28.4143 1.63743 0
688 1 Si 32.2819 29.4289 1.63334 0
689 1 Si 1.78823 54.9146 1.63606 0
690 1 Si 202.915 56.3208 1.63273 0
691 1 Si 47.0212 25.6876 1.62204 0
692 1 Si 44.0527 26.2955 1.59501 0
693 1 Si 3.99622 56.9911 1.63232 0
694 1 Si 6.96157 56.1608 1.63619 0
695 1 Si 7.32632 52.9298 1.64131 0
696 1 Si 114.544 57.0513 1.61914 0
697 1 Si 108.81 57.0606 1.62367 0
698 1 Si 111.769 58.886 1.63392 0
699 1 Si 59.0055 26.0195 1.62203 0
700 1 Si 62.1834 25.7903 1.63676 0
701 1 Si 120.311 56.4091 1.63213 0
702 1 Si 123.64 57.1058 1.61567 0
703 1 Si 117.67 58.623 1.62767 0
704 1 Si 76.2208 24.6604 1.61652 0
705 1 Si 87.4936 26.3942 1.63428 0
706 1 Si 81.8371 26.6971 1.62637 0
707 1 Si 84.7053 28.1861 1.6331 0
708 1 Si 140.833 56.8331 1.65188 0
709 1 Si 93.8687 24.47 1.62873 0
710 1 Si 90.3019 28.1236 1.62535 0
711 1 Si 93.5928 27.6728 1.61324 0
712 1 Si 135.085 57.6265 1.6344 0
713 1 Si 138.183 58.9423 1.6371 0
714 1 Si 97.2285 24.1732 1.64848 0
715 1 Si 176.587 57.0513 1.63329 0
716 1 Si 173.462 57.4904 1.63564 0
717 1 Si 20.0845 30.9473 1.61418 0
718 1 Si 22.8658 29.545 1.61559 0
719 1 Si 197.298 58.0575 1.60993 0
720 1 Si 39.9108 28.3037 1.6377 0
721 1 Si 37.6467 30.3522 1.63288 0
722 1 Si 106.343 59.0814 1.63711 0
723 1 Si 103.251 58.1944 1.61718 0
724 1 Si 101.351 52.7301 1.62879 0
725 1 Si 101.034 55.8817 1.63408 0
726 1 Si 53.0352 27.6527 1.61341 0
727 1 Si 47.5714 28.7634 1.62578 0
728 1 Si 50.5242 29.6003 1.61844 0
729 1 Si 203.096 59.4275 1.62178 0
730 1 Si 198.036 61.4195 1.62774 0
731 1 Si 201.203 62.0343 1.63233 0
732 1 Si 58.3822 29.1623 1.62888 0
733 1 Si 55.3087 29.9071 1.61767 0
734 1 Si 63.4312 28.7599 1.61892 0
735 1 Si 66.6071 29.2767 1.62392 0
736 1 Si 129.096 58.6137 1.61383 0
737 1 Si 132.309 59.5127 1.62898 0
738 1 Si 125.823 59.6117 1.6278 0
739 1 Si 76.2267 27.7305 1.6219 0
740 1 Si 73.3341 29.09 1.61601 0
741 1 Si 79.2251 28.7083 1.63138 0
742 1 Si 161.916 59.238 1.64441 0
743 1 Si 159.015 60.626 1.62434 0
744 1 Si 169.367 59.8319 1.62966 0
745 1 Si 164.254 61.426 1.59911 0
746 1 Si 167.374 62.2662 1.62391 0
747 1 Si 182.06 59.0264 1.64871 0
748 1 Si 178.674 59.4433 1.61795 0
749 1 Si 13.3865 33.4137 1.66102 0
750 1 Si 187.601 61.6834 1.62468 0
751 1 Si 184.19 61.8385 1.64097 0
752 1 Si 20.6873 34.0145 1.62606 0
753 1 Si 15.5099 35.8289 1.62226 0
754 1 Si 18.6447 36.3285 1.61524 0
755 1 Si 28.0177 31.3655 1.61688 0
756 1 Si 24.9909 31.7455 1.63164 0
757 1 Si 2.35402 59.6328 1.62753 0
758 1 Si 32.7372 32.6816 1.6186 0
759 1 Si 28.2115 34.5229 1.62616 0
760 1 Si 31.0751 35.483 1.62616 0
761 1 Si 42.8888 29.1242 1.61571 0
762 1 Si 107.132 62.2013 1.6244 0
763 1 Si 104.803 64.241 1.61498 0
764 1 Si 101.829 63.4528 1.61393 0
765 1 Si 101.109 60.5002 1.61792 0
766 1 Si 118.15 62.1093 1.6391 0
767 1 Si 124.581 62.6911 1.62094 0
768 1 Si 121.254 63.8553 1.62072 0
769 1 Si 112.354 62.2845 1.64971 0
770 1 Si 109.646 64.0735 1.61712 0
771 1 Si 45.3052 31.0087 1.63147 0
772 1 Si 61.0484 30.9561 1.6219 0
773 1 Si 138.547 62.3221 1.63683 0
774 1 Si 132.843 62.6479 1.62756 0
775 1 Si 135.765 64.0639 1.61449 0
776 1 Si 84.5956 31.49 1.63454 0
777 1 Si 79.0658 31.8899 1.63304 0
778 1 Si 81.9063 33.3201 1.63317 0
779 1 Si 141.484 63.9076 1.61484 0
780 1 Si 90.1708 31.3016 1.6307 0
781 1 Si 87.4108 33.0613 1.63938 0
782 1 Si 95.8998 30.1502 1.63142 0
783 1 Si 93.2906 32.2833 1.62174 0
784 1 Si 172.614 60.4744 1.58667 0
785 1 Si 23.7462 34.5406 1.61385 0
786 1 Si 175.857 61.2665 1.62578 0
787 1 Si 192.951 62.7843 1.61094 0
788 1 Si 189.997 64.2073 1.62007 0
789 1 Si 39.964 33.5854 1.6378 0
790 1 Si 34.9301 34.9173 1.62854 0
791 1 Si 37.9338 35.9491 1.62303 0
792 1 Si 195.959 64.1857 1.63254 0
793 1 Si 50.859 32.7633 1.60983 0
794 1 Si 54.0413 32.8401 1.62208 0
795 1 Si 4.04908 62.2184 1.62967 0
796 1 Si 202.696 64.954 1.6162 0
797 1 Si 2.05479 64.7139 1.61767 0
798 1 Si 67.2921 32.5638 1.63328 0
799 1 Si 61.4869 34.2154 1.64402 0
800 1 Si 64.8354 34.8483 1.60984 0
801 1 Si 115.274 63.9682 1.62745 0
802 1 Si 73.3445 32.3575 1.65482 0
803 1 Si 70.3735 33.8378 1.62564 0
804 1 Si 127.152 64.7831 1.61841 0
805 1 Si 130.377 64.654 1.63652 0
806 1 Si 76.4177 33.7406 1.61476 0
807 1 Si 154.04 64.4325 1.6166 0
808 1 Si 151.22 65.9374 1.62205 0
809 1 Si 159.551 63.7981 1.63631 0
810 1 Si 157.008 65.7813 1.62133 0
811 1 Si 162.735 64.2177 1.61911 0
812 1 Si 182.976 65.003 1.63777 0
813 1 Si 176.459 64.3364 1.6278 0
814 1 Si 179.67 65.095 1.59939 0
815 1 Si 168.078 65.4619 1.60826 0
816 1 Si 164.956 66.5433 1.62738 0
817 1 Si 14.3937 38.7748 1.61829 0
818 1 Si 190.277 67.603 1.61289 0
819 1 Si 184.498 68.1936 1.6374 0
820 1 Si 187.732 69.7223 1.6097 0
821 1 Si 25.9421 36.6634 1.61897 0
822 1 Si 7.29433 61.7969 1.63209 0
823 1 Si 8.76544 58.8299 1.64649 0
824 1 Si 107.937 66.8797 1.63401 0
825 1 Si 104.722 67.373 1.59907 0
826 1 Si 45.5971 34.1644 1.6236 0
827 1 Si 42.915 35.9352 1.63313 0
828 1 Si 115.319 67.3911 1.65151 0
829 1 Si 109.28 69.6832 1.61805 0
830 1 Si 112.586 69.3453 1.6134 0
831 1 Si 121.075 67.3313 1.64041 0
832 1 Si 118.249 69.1296 1.64773 0
833 1 Si 48.7018 35.1433 1.62609 0
834 1 Si 126.545 67.936 1.62451 0
835 1 Si 123.706 69.4575 1.62327 0
836 1 Si 55.4958 35.6436 1.62046 0
837 1 Si 58.7466 36.2432 1.62346 0
838 1 Si 134.987 67.225 1.638 0
839 1 Si 131.785 67.4873 1.61841 0
840 1 Si 142.286 67.2787 1.63092 0
841 1 Si 136.873 69.8548 1.61084 0
842 1 Si 140.217 70.0373 1.61804 0
843 1 Si 145.592 67.6117 1.62232 0
844 1 Si 87.1709 36.3285 1.62019 0
845 1 Si 81.4439 36.5103 1.61212 0
846 1 Si 84.3317 38.1917 1.63879 0
847 1 Si 92.9461 35.4819 1.62909 0
848 1 Si 90.2288 37.347 1.62303 0
849 1 Si 95.5968 37.2129 1.62786 0
850 1 Si 174.088 66.5917 1.60737 0
851 1 Si 170.849 67.3603 1.65755 0
852 1 Si 19.3049 39.4225 1.618 0
853 1 Si 16.6216 41.0314 1.61334 0
854 1 Si 25.0205 39.5662 1.62824 0
855 1 Si 22.1023 40.6562 1.61291 0
856 1 Si 179.393 68.2083 1.61404 0
857 1 Si 176.345 68.8669 1.61215 0
858 1 Si 34.0696 37.8891 1.6128 0
859 1 Si 31.1384 38.7315 1.60049 0
860 1 Si 38.8444 39.0956 1.62019 0