LAMMPS data file via write_data, version 2 Aug 2023, timestep = 132, units = metal

15576 atoms
2 atom types

7.5500745150706985 198.4845564346851 xlo xhi
7.31088283148885 168.5362340393579 ylo yhi
-100 100 zlo zhi

Masses

1 28.085
2 15.999

Atoms # full

6626 1 1 0 11.221900184976937 7.661949918272701 -1.6440131623654934 0 0 0
9315 1 2 0 10.492225925930443 9.038346784350487 -2.22605718033205 0 0 0
9320 1 2 0 12.761998544273384 7.863843366739823 -2.197217203920128 0 0 0
9310 1 2 0 8.285990752398282 10.311669330563788 -2.1972077533720875 0 0 0
6623 1 1 0 9.831407943962748 10.453304620747199 -1.643468692576773 0 0 0
9314 1 2 0 10.383947271637663 11.921386855183457 -2.2192846980375176 0 0 0
6645 1 1 0 14.007234476492759 8.788904082029918 -1.645185609908824 0 0 0
9350 1 2 0 15.29439652622293 7.911081298206028 -2.2128023048948777 0 0 0
6841 1 1 0 18.466873112254103 7.481179613400905 -1.6402256492637992 0 0 0
9645 1 2 0 18.14467751861048 8.992424601421451 -2.248725358687538 0 0 0
9348 1 2 0 14.027958682612393 10.3571916148453 -2.202855487349715 0 0 0
6644 1 1 0 15.031172962931999 11.582251564352205 -1.649210536334214 0 0 0
9349 1 2 0 16.54597012309657 11.231172616104795 -2.218042044047264 0 0 0
6840 1 1 0 17.93138400770944 10.525400108487682 -1.6490560802336878 0 0 0
13134 1 2 0 15.016581425676616 11.623726301322696 -3.9365346287614065e-07 0 0 0
13330 1 2 0 17.922591424206782 10.503545965529607 -3.8461782237981153e-07 0 0 0
13135 1 2 0 13.968956406162443 8.864748785571935 -7.605920237647468e-07 0 0 0
6850 1 1 0 23.581337209205984 7.79815068984241 -1.6468136421108697 0 0 0
9660 1 2 0 23.275026465311008 9.311585117336172 -2.2389353822677207 0 0 0
9646 1 2 0 19.147858587803515 11.467998215166764 -2.235961122930485 0 0 0
9656 1 2 0 21.77787282042414 11.589924162151691 -2.242279510244185 0 0 0
6849 1 1 0 23.130870717058727 10.853359906079346 -1.6511588744668066 0 0 0
9661 1 2 0 24.3870950088339 11.738565249218817 -2.2609821816454474 0 0 0
6846 1 1 0 20.42084352356031 12.327185651338892 -1.6478798803142642 0 0 0
13339 1 2 0 23.101772820627808 10.828993565588505 -1.2072736694257127e-07 0 0 0
6856 1 1 0 28.705587496074067 7.818522681532741 -1.6427816224162373 0 0 0
9666 1 2 0 26.98165094222581 11.083605321700846 -2.1863224714717258 0 0 0
6855 1 1 0 28.52975829209001 10.862376642904579 -1.6474835068618634 0 0 0
9670 1 2 0 28.841154292626154 9.357095071864268 -2.251273073740607 0 0 0
6852 1 1 0 25.855456694693192 12.148187470299117 -1.6433223305004259 0 0 0
9671 1 2 0 29.592266543351066 12.004490271087155 -2.227712630871082 0 0 0
13342 1 2 0 25.764776723045966 12.147653451464274 -8.513324425874702e-07 0 0 0
13345 1 2 0 28.607267491263872 10.884279072049965 -1.2839710099007918e-07 0 0 0
6869 1 1 0 31.643176952122136 7.336164064705243 -1.641208466982336 0 0 0
9691 1 2 0 32.395276891904146 8.656587324677602 -2.2912441592606103 0 0 0
9692 1 2 0 34.91329102834121 9.641713403230057 -2.2385769598424807 0 0 0
6867 1 1 0 33.38866267679413 9.81366968591767 -1.6476618093875561 0 0 0
9690 1 2 0 32.889834829883824 11.28048001477546 -2.2045090075623572 0 0 0
6868 1 1 0 33.175767103616614 12.81440709026476 -1.6445537970032884 0 0 0
13357 1 2 0 33.38171149322195 9.748295372188862 -3.493851900406879e-07 0 0 0
13358 1 2 0 33.277315674235574 12.82147463382087 -6.557451646545764e-07 0 0 0
6871 1 1 0 36.38689167697059 9.215658427957713 -1.6480438568328055 0 0 0
9697 1 2 0 36.659623664268764 7.7101304494071226 -2.267328805550674 0 0 0
9696 1 2 0 37.50937857336336 10.291141160145786 -2.2116012373256804 0 0 0
6872 1 1 0 38.16818745790435 11.71272370496336 -1.647987900405186 0 0 0
9699 1 2 0 39.742016356780695 11.72851056479542 -2.201481764016743 0 0 0
9698 1 2 0 37.29366614093615 13.029891483260089 -2.1933223298580673 0 0 0
6877 1 1 0 41.19555505983656 11.118658005499034 -1.649977497016259 0 0 0
6883 1 1 0 41.5955527322666 8.055210840859006 -1.650303586060231 0 0 0
9707 1 2 0 41.49439089228025 9.592246105670577 -2.2432306051461253 0 0 0
9706 1 2 0 42.42865725977909 12.064589031603509 -2.2269411688684584 0 0 0
6885 1 1 0 46.571688974647145 11.310751719123576 -1.64912637489796 0 0 0
9709 1 2 0 45.163483655730026 11.960474325355744 -2.242297958234194 0 0 0
6878 1 1 0 43.82041497455745 12.755595732418321 -1.6499084187457231 0 0 0
9720 1 2 0 46.7173667727858 9.744867645484922 -2.2063510664592467 0 0 0
13368 1 2 0 43.8347896423446 12.712280092505615 -3.443163548114922e-07 0 0 0
13373 1 2 0 41.650999616803475 8.110736427906359 -6.658510746445145e-07 0 0 0
6886 1 1 0 47.898445673468544 8.720591425315535 -1.6428419106164198 0 0 0
9723 1 2 0 49.39566587492189 9.23601551876598 -2.126236979234371 0 0 0
6895 1 1 0 50.796295297608566 8.492016645748139 -1.6444841509147634 0 0 0
9729 1 2 0 51.980883828945295 9.426848933150502 -2.284343107693858 0 0 0
9721 1 2 0 47.965365719519774 12.04826397915944 -2.185466686540821 0 0 0
13385 1 2 0 50.896931742904165 8.422908841481505 -1.8263854157002817e-06 0 0 0
9731 1 2 0 55.924489964998436 8.10476083274439 -2.235520420907343 0 0 0
6889 1 1 0 52.94431831961215 10.595184452912346 -1.648509621073032 0 0 0
9727 1 2 0 54.43228042983845 10.283997691492477 -2.2489683335888175 0 0 0
6890 1 1 0 55.8167057035487 9.64712091605985 -1.6474674197814936 0 0 0
9730 1 2 0 56.97471807912489 10.677628772211145 -2.224063485580648 0 0 0
9728 1 2 0 52.5276339484624 12.064179541070265 -2.247244124795707 0 0 0
6892 1 1 0 57.71343890872139 12.043357405185077 -1.6480179202358012 0 0 0
13379 1 2 0 52.909963972314294 10.601399493530575 -2.679009627507844e-08 0 0 0
6901 1 1 0 61.34481567414939 8.378924694833625 -1.6472578398568114 0 0 0
9749 1 2 0 62.84677122101464 7.947805418356357 -2.1851687197435297 0 0 0
9735 1 2 0 59.2413162389535 11.92996912173213 -2.2413829541337513 0 0 0
6900 1 1 0 60.68594626161323 11.41994891108524 -1.648588258934537 0 0 0
9746 1 2 0 60.989592552640744 9.89378769511194 -2.231951681698303 0 0 0
9747 1 2 0 61.70964031250111 12.584638838086425 -2.2191556882299106 0 0 0
13390 1 2 0 60.72484255636741 11.374858955329236 -5.733898796489427e-07 0 0 0
6911 1 1 0 64.39203955087585 8.213132124971844 -1.646504870432939 0 0 0
9762 1 2 0 64.86243222272374 9.713086488289377 -2.2205633159316704 0 0 0
6910 1 1 0 65.23478853105416 11.241779823002108 -1.6478009364488 0 0 0
9763 1 2 0 66.74925565486356 11.553863838737813 -2.216793649918526 0 0 0
9758 1 2 0 64.31089414531955 12.522819571374837 -2.195599635445341 0 0 0
6913 1 1 0 68.14775774519491 12.221234655352783 -1.6486851506753712 0 0 0
13401 1 2 0 64.45990347168498 8.246465492838613 -1.640630039484305e-06 0 0 0
9765 1 2 0 69.33188296607037 11.18294811195053 -2.221232517070428 0 0 0
9767 1 2 0 70.26121576630386 8.505493814324877 -2.2083533309227583 0 0 0
6912 1 1 0 70.43673171511944 10.066694706841409 -1.6440472069013854 0 0 0
9766 1 2 0 71.96456627046628 10.528713030738931 -2.135321403596697 0 0 0
6914 1 1 0 72.71093671316835 11.927214067886087 -1.6464503967953659 0 0 0
9770 1 2 0 74.25658823016849 12.0626930350008 -2.239748228755334 0 0 0
6924 1 1 0 76.27278320945321 8.417654171762916 -1.6446594191507926 0 0 0
9780 1 2 0 75.62667273564112 9.82357018456921 -2.2025833233846073 0 0 0
9787 1 2 0 77.83789495600985 8.343544662734836 -2.2175251336345956 0 0 0
6928 1 1 0 79.3771932969367 8.037724433311565 -1.6485806716007343 0 0 0
6920 1 1 0 75.64635959774296 11.363940385121262 -1.646673338477422 0 0 0
9779 1 2 0 77.05651023378026 12.00890581607721 -2.219768548414792 0 0 0
13414 1 2 0 76.33117295723743 8.313018115662326 -2.5941040438247914e-06 0 0 0
9786 1 2 0 75.16649033319418 7.329290934692828 -2.228209144280566 0 1 0
9791 1 2 0 80.58947306570792 9.041541411384337 -2.209052181335765 0 0 0
9792 1 2 0 83.38242360923036 9.531415655087127 -2.204652307692799 0 0 0
6934 1 1 0 84.89212570553121 9.062811194440927 -1.650629371326236 0 0 0
9804 1 2 0 85.11990296718984 7.5352226950208765 -2.2276451636151915 0 0 0
9789 1 2 0 81.6175478477954 11.50298049291108 -2.218682342558019 0 0 0
6927 1 1 0 81.86838002108756 9.967609738953351 -1.6487453353220647 0 0 0
6926 1 1 0 81.0511526915718 12.948348709913404 -1.648618562268506 0 0 0
9795 1 2 0 86.00079227237339 12.350842945863706 -2.0393937146917454 0 0 0
9796 1 2 0 86.25488380080307 9.850235499106418 -2.2185808492676657 0 0 0
9805 1 2 0 91.55706211865333 7.8338886834573485 -2.2670430045360774 0 0 0
6929 1 1 0 87.10513852573 11.16467651883483 -1.6351046524451402 0 0 0
9794 1 2 0 88.6794886688065 11.356670548353048 -2.218409277970739 0 0 0
6930 1 1 0 90.25908115688812 11.577413201956418 -1.6480622123942628 0 0 0
9798 1 2 0 91.26366761566248 10.390956378202016 -2.22237095706592 0 0 0
9797 1 2 0 91.0729397768305 12.939540014828435 -2.1712370368580864 0 0 0
13420 1 2 0 90.18470151680557 11.583533947869899 -9.330312783131749e-07 0 0 0
13419 1 2 0 87.27132038836378 11.042761937234548 -1.3836630432817548e-07 0 0 0
6935 1 1 0 92.24845518851824 9.192772206594862 -1.649335617789917 0 0 0
9806 1 2 0 93.80674380434039 9.234019588531979 -2.227483618100314 0 0 0
6942 1 1 0 95.36242390984376 9.187461687604399 -1.6501604663979987 0 0 0
9818 1 2 0 96.20156293532587 7.858362851145744 -2.2230674237742134 0 0 0
6940 1 1 0 97.3322982879957 11.480584741576621 -1.646482376851804 0 0 0
9814 1 2 0 96.05085869799485 10.594836819871658 -2.209505843636915 0 0 0
9813 1 2 0 97.31662205737436 13.036075177669485 -2.2324713991631993 0 0 0
13432 1 2 0 95.35846451595931 9.134852588791025 -6.959677609648827e-07 0 0 0
6948 1 1 0 102.25311152889364 8.686498108948713 -1.648889859391625 0 0 0
6945 1 1 0 100.21808355771434 10.936653850200052 -1.6442197067589026 0 0 0
9815 1 2 0 98.67452468958626 10.633262423478264 -2.1617677620841462 0 0 0
9822 1 2 0 101.3408773723138 9.913845301986857 -2.2762287100655145 0 0 0
9821 1 2 0 100.55841937741035 12.436932335757048 -2.227100341155276 0 0 0
13438 1 2 0 102.29337384963544 8.719046234865662 -3.3931639980793265e-07 0 0 0
6624 1 1 0 10.615490059168396 13.483575783025644 -1.6488090494549428 0 0 0
9317 1 2 0 12.081057711461803 14.009484713221829 -2.2095038016619406 0 0 0
6625 1 1 0 8.221964088406368 15.49070996096593 -1.6495568250024188 0 0 0
9316 1 2 0 9.541991221157078 14.635269920235066 -2.2002884887435745 0 0 0
9318 1 2 0 8.154958796704268 17.075528203400857 -2.2090836684566586 0 0 0
13114 1 2 0 10.573637790298713 13.442533050545038 -5.754186198946977e-07 0 0 0
6666 1 1 0 7.941120927471243 18.640752168361235 -1.6483225898723495 0 0 0
9346 1 2 0 14.57065862999354 13.073716742353062 -2.2223626375495535 0 0 0
6643 1 1 0 13.607225980965346 14.31554620721325 -1.6483779325498062 0 0 0
9347 1 2 0 14.07472847778493 15.81733133413573 -2.2055201440006824 0 0 0
6670 1 1 0 14.760461962291885 17.238948470695554 -1.6506547997335532 0 0 0
9387 1 2 0 16.339381257530285 17.206102861200275 -2.1993691393702712 0 0 0
6848 1 1 0 17.903995602847683 17.375882433066952 -1.6483270700163597 0 0 0
9385 1 2 0 13.927024856703705 18.598959433074533 -2.2095819263406637 0 0 0
9659 1 2 0 18.47897198400779 18.812758396848416 -2.2372647414167854 0 0 0
13338 1 2 0 17.885276189413027 17.341553137745624 -3.029559508507078e-07 0 0 0
9655 1 2 0 20.272859164014395 13.870711295559177 -2.224481232660683 0 0 0
9657 1 2 0 18.96880851803052 16.221305828515366 -2.212227321053771 0 0 0
6847 1 1 0 20.32178916234646 15.42346249704594 -1.6497883715142427 0 0 0
9658 1 2 0 21.741059543707994 16.083015141548547 -2.23326067780302 0 0 0
6854 1 1 0 23.267395718336545 16.372436267048595 -1.6527722161720655 0 0 0
9669 1 2 0 23.922838770254472 17.757963528192683 -2.284014679257208 0 0 0
13344 1 2 0 23.17852421626271 16.405605462810165 -7.245603302711093e-08 0 0 0
9667 1 2 0 24.395950909300893 15.280339785326149 -2.1916125244543987 0 0 0
9665 1 2 0 26.37887679165184 13.607705480242338 -2.2031211280519307 0 0 0
6853 1 1 0 25.953613776270355 15.101983625089877 -1.6448261956885746 0 0 0
9668 1 2 0 27.14310564926998 16.14104914620026 -2.1817152528323773 0 0 0
6866 1 1 0 28.731064809160262 16.098276959704545 -1.6526394319013675 0 0 0
9687 1 2 0 29.444611924722892 14.725575061665714 -2.245339390044788 0 0 0
9689 1 2 0 29.55867587135613 17.39963662997277 -2.275981155159594 0 0 0
13356 1 2 0 28.790923672827724 16.090807775293584 -5.680925946441087e-07 0 0 0
13453 1 2 0 29.95255885086837 18.732180983364536 -2.044248906525849e-07 0 0 0
6865 1 1 0 30.265479372082066 13.420749085734018 -1.649367431588646 0 0 0
9688 1 2 0 31.833423567316736 13.635331938473751 -2.1704544646555313 0 0 0
9693 1 2 0 34.58308204689385 13.466541764877693 -2.2378057007158043 0 0 0
13355 1 2 0 30.21300682646703 13.39476286819424 -2.2854843576894332e-08 0 0 0
6873 1 1 0 36.048445163820105 14.013184962341224 -1.6527412665208792 0 0 0
9700 1 2 0 36.21561105868533 15.568560077343415 -2.233557333110519 0 0 0
6879 1 1 0 36.77652425215842 17.019528011918148 -1.6445375572842595 0 0 0
9710 1 2 0 38.37156857244868 17.096615003514643 -2.1303530378093933 0 0 0
9712 1 2 0 40.93786578496909 18.044407181084573 -2.245022819357932 0 0 0
6880 1 1 0 39.41983700192893 18.287270186468938 -1.6549025695589068 0 0 0
9711 1 2 0 35.952270133460864 18.35932471419873 -2.2171221518241047 0 0 0
9708 1 2 0 43.81381506467353 14.315408023705194 -2.2109013787536766 0 0 0
6881 1 1 0 44.2818382188568 15.801414133227922 -1.6477428275324428 0 0 0
9715 1 2 0 45.77843058901499 16.181049865936142 -2.231094038116272 0 0 0
9714 1 2 0 43.295131349187876 16.976367914007003 -2.246457228346134 0 0 0
6882 1 1 0 42.4699954225528 18.27715836703472 -1.6506982673134745 0 0 0
13372 1 2 0 42.491491334805914 18.293722289345013 -1.2011494154760268e-07 0 0 0
6899 1 1 0 48.79802359584243 13.37540964825505 -1.6459782260296134 0 0 0
9733 1 2 0 50.33031405059853 13.497127525478092 -2.2543491691430537 0 0 0
6891 1 1 0 51.87372415261286 13.450143965980454 -1.6493832011727987 0 0 0
6973 1 1 0 47.30641713959751 16.026177003688808 -1.6473229574558508 0 0 0
9745 1 2 0 47.94267517587255 14.641078637149457 -2.247508289390928 0 0 0
9862 1 2 0 48.20952349029429 17.235541883201048 -2.2842509084603195 0 0 0
9863 1 2 0 50.7724718253751 17.967695058808218 -2.1934316743043882 0 0 0
6975 1 1 0 49.25119019241646 18.329841921579515 -1.6508538048212886 0 0 0
6974 1 1 0 52.28340627025916 18.37912975062119 -1.6483119072505497 0 0 0
13381 1 2 0 51.84633003460275 13.476020616421744 1.4773647445157294e-08 0 0 0
9734 1 2 0 57.07698395670588 13.466496573525314 -2.215543689471628 0 0 0
9732 1 2 0 52.81235186465842 14.684202920310765 -2.2252908493905434 0 0 0
6894 1 1 0 53.89618170602673 15.805451238068649 -1.6489071502042323 0 0 0
9736 1 2 0 55.43687615463108 15.556619183418816 -2.2218054873671678 0 0 0
6893 1 1 0 56.90731753265423 15.021981360073466 -1.649460066034488 0 0 0
9738 1 2 0 53.3872151142168 17.279699424851508 -2.215519280265525 0 0 0
13383 1 2 0 56.91236108439403 15.046598988057745 7.80219048018457e-08 0 0 0
13384 1 2 0 53.91351607540473 15.755449995073898 -3.406735266884492e-07 0 0 0
6907 1 1 0 63.01734516597211 13.426399973262873 -1.6471779065358017 0 0 0
9737 1 2 0 58.16063714647721 15.969305875433577 -2.21043650681428 0 0 0
6908 1 1 0 62.40043288467579 16.50787441227028 -1.6502168027351587 0 0 0
9757 1 2 0 62.967406579393305 15.01315327326091 -2.196511331332798 0 0 0
6909 1 1 0 59.29016609540477 17.06170187037186 -1.6495431161393792 0 0 0
9759 1 2 0 60.827037581485875 16.696231841614487 -2.1921152587193298 0 0 0
9760 1 2 0 63.32469302652952 17.807480351748 -2.1908639474755502 0 0 0
9761 1 2 0 58.81908232397156 18.551335219711618 -2.230679138574329 0 0 0
13398 1 2 0 62.432607878407104 16.505488478585434 -2.1135214886243553e-07 0 0 0
13399 1 2 0 59.30152419136688 17.057945225147677 -1.9328855318472987e-08 0 0 0
13397 1 2 0 63.03376826100583 13.479376622497032 -1.3240600193240605e-08 0 0 0
9768 1 2 0 68.14749228260925 13.811414108137608 -2.1872256457752948 0 0 0
9773 1 2 0 67.93235635122784 16.705169730593436 -2.216148450569625 0 0 0
6916 1 1 0 68.66693171882685 15.313636631774958 -1.644996903698669 0 0 0
9869 1 2 0 65.918602082109 18.42027704915828 -2.199146471171813 0 0 0
6979 1 1 0 67.46841922479692 18.221074880936854 -1.649228726937455 0 0 0
13469 1 2 0 67.54410807514569 18.196856925179333 -1.756725348208076e-07 0 0 0
9769 1 2 0 71.75728231461224 13.15362962727918 -2.224857097680743 0 0 0
9771 1 2 0 70.22010189105434 15.426623048459119 -2.208947213684324 0 0 0
6915 1 1 0 71.57999914301776 14.69033309563962 -1.6462457942075421 0 0 0
9772 1 2 0 72.83693765570645 15.541255675917936 -2.2521338421001613 0 0 0
6923 1 1 0 73.75485175984353 16.756914642480773 -1.6501567136927815 0 0 0
9785 1 2 0 73.18574305871394 18.171154481110936 -2.275970081017741 0 0 0
9782 1 2 0 79.51737055586167 13.172539115482587 -2.250789798051261 0 0 0
6921 1 1 0 77.98023580655251 13.256588313317199 -1.6481359796114048 0 0 0
9783 1 2 0 75.23433545792824 16.437116907861913 -2.278863390291408 0 0 0
6922 1 1 0 76.68666678377642 16.01639415574409 -1.6470544167653853 0 0 0
9781 1 2 0 77.19661340283557 14.576983359681046 -2.2436161680373345 0 0 0
9784 1 2 0 77.69745492135318 17.133983094358115 -2.2778585972571577 0 0 0
9873 1 2 0 80.28222800122971 17.49729336622768 -2.221756346022028 0 0 0
6982 1 1 0 78.85541971926341 18.088423690915636 -1.6459916355404036 0 0 0
13412 1 2 0 76.65322578104029 16.0058469877779 1.0344238724550305e-06 0 0 0
9790 1 2 0 82.03798750675381 14.15722061152896 -2.207536523961325 0 0 0
6931 1 1 0 86.03048472661409 13.95467494700753 -1.6348997548488755 0 0 0
6939 1 1 0 83.20350952717911 15.208212400843045 -1.6522114372220036 0 0 0
9812 1 2 0 82.8476346391504 16.7449485898521 -2.2165848277240117 0 0 0
9800 1 2 0 84.69735905285495 14.745051287449092 -2.244762803932054 0 0 0
6981 1 1 0 81.78815175913701 17.897590666364835 -1.6467947252326933 0 0 0
6932 1 1 0 91.46876824008548 14.473508209292042 -1.645171166194731 0 0 0
6933 1 1 0 88.6320563565492 15.392915008195745 -1.628453502336593 0 0 0
9799 1 2 0 87.51379394934578 14.363058334422243 -2.2778596109112903 0 0 0
9803 1 2 0 87.94459510897704 16.820599485672542 -2.0460871413522486 0 0 0
9801 1 2 0 90.18057011964584 15.363038335191703 -2.2223162733063218 0 0 0
13422 1 2 0 91.58172444981295 14.47014229910481 -1.0689742949442912e-06 0 0 0
6983 1 1 0 88.53648634729146 18.284297848285103 -1.6355464506608228 0 0 0
9877 1 2 0 90.09040870209796 18.346667750942082 -2.237870097303129 0 0 0
13473 1 2 0 88.61709699928802 18.51286872753047 6.937601793025406e-07 0 0 0
9802 1 2 0 92.89373643183448 15.15539070126568 -2.220431389650639 0 0 0
6943 1 1 0 94.29766332687284 15.90022406898705 -1.647585368166481 0 0 0
9816 1 2 0 95.6258572394938 15.071355449927015 -2.2025277144425908 0 0 0
6941 1 1 0 97.11713048120582 14.588291942611107 -1.6506726101605598 0 0 0
9819 1 2 0 94.58351786088659 17.464174639794187 -2.1725094449312774 0 0 0
13433 1 2 0 94.2094693910991 15.897517126372898 -6.040093373055661e-07 0 0 0
13431 1 2 0 97.13494675736553 14.58596502466403 -2.853204460021784e-06 0 0 0
6946 1 1 0 101.57462269739896 13.590851503868326 -1.6563033558750604 0 0 0
9817 1 2 0 98.3223448856147 15.615703773761163 -2.2047312565818564 0 0 0
6947 1 1 0 99.83876612423474 16.064184319331027 -1.64710803844218 0 0 0
9823 1 2 0 100.97807371436306 15.01244484722347 -2.229798244304026 0 0 0
9393 1 2 0 100.41839900514081 17.538402860838985 -2.1783105389750435 0 0 0
6673 1 1 0 101.74992431583864 18.41563710163222 -1.6570728224284808 0 0 0
9381 1 2 0 9.084237902361071 19.676862492269294 -2.235683929578924 0 0 0
9383 1 2 0 11.547039935424223 20.05775401935195 -2.171850717545082 0 0 0
6668 1 1 0 10.148577627545624 20.792871971024514 -1.6480091546266573 0 0 0
6669 1 1 0 13.11457717308526 19.95944178400107 -1.6435576056463967 0 0 0
9384 1 2 0 9.801944806381183 22.34637198174733 -2.2086413713675785 0 0 0
6711 1 1 0 9.515215490672157 23.91324634687018 -1.6451156293706943 0 0 0
13201 1 2 0 9.467364330014597 23.81263476332422 -1.3516737948865061e-07 0 0 0
9482 1 2 0 13.148329575040556 24.27866652617625 -2.2438887167245642 0 0 0
13158 1 2 0 10.141002710541017 20.877824593504872 -1.774460178284572e-08 0 0 0
9386 1 2 0 13.692816687993561 21.407719282700903 -2.220308882239222 0 0 0
6991 1 1 0 18.647853488241726 20.34068284043364 -1.6527032446402796 0 0 0
9889 1 2 0 17.36743207209523 21.230138695572272 -2.2205417883882883 0 0 0
6733 1 1 0 13.933341143397753 22.946866026413183 -1.641466418763391 0 0 0
9484 1 2 0 15.44745746263047 23.21944637934796 -2.2005857575916052 0 0 0
6992 1 1 0 16.89006777713061 22.698125447271526 -1.6446329667681092 0 0 0
9891 1 2 0 17.84337253631975 23.880979040295518 -2.2745428486338204 0 0 0
13481 1 2 0 18.686371104040518 20.310048015267775 -5.033573248215233e-07 0 0 0
13223 1 2 0 13.74180338730787 22.920686222075084 -8.893202419524132e-08 0 0 0
13159 1 2 0 13.212642644017002 19.899694099079905 -9.236783123028978e-08 0 0 0
9890 1 2 0 20.012023349277353 21.04989700037039 -2.2779949187171584 0 0 0
6994 1 1 0 21.526690451241915 21.10303741155888 -1.6298027485313094 0 0 0
9892 1 2 0 22.221434558239945 19.63622606462886 -1.9096708799246183 0 0 0
6993 1 1 0 23.802049121453464 19.250990280342478 -1.615832224972192 0 0 0
9894 1 2 0 22.583300276235622 22.174953548302923 -2.35624840075189 0 0 0
7058 1 1 0 22.82469803019015 23.589683810923635 -1.5162996430013882 0 0 0
9987 1 2 0 21.251676757905265 24.091306516670837 -1.4358709966370196 0 0 0
13548 1 2 0 23.37884515944154 23.18476058743294 -2.962940384851963e-07 0 0 0
13484 1 2 0 21.380259715624764 21.400917069881803 -1.8251283195347967e-07 0 0 0
13483 1 2 0 24.118558466706535 19.213314456148584 -9.63358385057569e-07 0 0 0
9893 1 2 0 24.928451136358134 20.254051643955417 -2.2976566081304024 0 0 0
6998 1 1 0 25.81519949866914 21.47819153879681 -1.6399631298569457 0 0 0
9898 1 2 0 27.290289140692852 21.589508615104712 -2.320596993894742 0 0 0
9848 1 2 0 29.204105196465672 20.064840462072215 -2.260939564177988 0 0 0
6997 1 1 0 28.773167128335853 21.532726984753616 -1.6512454575199023 0 0 0
9900 1 2 0 25.26887568884836 22.9383213156257 -2.1830060141172045 0 0 0
9899 1 2 0 29.591902664169876 22.89945030162089 -2.13204198905029 0 0 0
7061 1 1 0 25.427802426389594 24.493944217155462 -1.6199170291921163 0 0 0
13488 1 2 0 25.863924028121865 21.369368853779168 -5.456986354488161e-08 0 0 0
13551 1 2 0 25.744917791432353 24.53051967999689 -1.8096940436263407e-07 0 0 0
6963 1 1 0 30.08801633750075 18.831626175535696 -1.6351600799149566 0 0 0
9847 1 2 0 31.606421398528365 19.276786912367072 -2.0959024120812626 0 0 0
6964 1 1 0 32.49108841807921 20.6210011785938 -1.6475859151884824 0 0 0
9845 1 2 0 33.904832894417446 20.091504742550086 -2.289695041208847 0 0 0
6962 1 1 0 35.39265179507655 19.826362816540207 -1.647978411221489 0 0 0
9849 1 2 0 32.130655794668805 22.181644636659158 -2.187769751260606 0 0 0
7037 1 1 0 31.108402602232662 23.41807260528874 -1.6413662302056597 0 0 0
13452 1 2 0 35.40154958223964 19.780262603079297 -3.533869961970045e-07 0 0 0
13454 1 2 0 32.516650248758566 20.730625740168932 -1.5634794964129208e-06 0 0 0
13527 1 2 0 31.233414265651493 23.477362863174324 -2.042919506347699e-07 0 0 0
9846 1 2 0 36.13328430298207 21.20193862699527 -2.2289715856790244 0 0 0
9713 1 2 0 38.79982103180414 19.69098813624488 -2.326383330256688 0 0 0
6970 1 1 0 39.005292534176505 21.10726228139253 -1.504059979659433 0 0 0
9859 1 2 0 40.618296169394945 21.4108291026384 -1.4467401095831582 0 0 0
6971 1 1 0 36.68043494478013 22.637270997910047 -1.6117892867152561 0 0 0
9858 1 2 0 38.2857172415575 22.492845199833887 -2.0537123928246728 0 0 0
9860 1 2 0 36.20196625018975 24.090505427872515 -2.2483932829531326 0 0 0
9914 1 2 0 40.43107180737128 24.018574708857404 -2.3213160308930965 0 0 0
13461 1 2 0 36.31839966686343 22.715870534982848 -1.2869709967430577e-06 0 0 0
7007 1 1 0 41.35552605454857 22.907371778078357 -1.5257050835440304 0 0 0
9716 1 2 0 43.143498337754686 19.68274316559819 -2.2376490786170575 0 0 0
7006 1 1 0 43.595640700968794 21.170432000320353 -1.6554079053690556 0 0 0
9912 1 2 0 42.757316537043415 22.474790005825536 -2.2892334466357256 0 0 0
9913 1 2 0 45.1305951688444 21.502285524348885 -2.1770526779943227 0 0 0
7041 1 1 0 46.15411967492352 22.689593258102445 -1.6482379686879782 0 0 0
13531 1 2 0 46.16309040851008 22.728392235981726 -6.666148915061148e-07 0 0 0
9964 1 2 0 45.83662203852841 24.221460359735612 -2.1996368251980405 0 0 0
13497 1 2 0 41.71861815447456 23.470425200711265 -1.1211042347442567e-07 0 0 0
9865 1 2 0 48.65499346458014 19.745129786163766 -2.258837068516981 0 0 0
7040 1 1 0 48.76531721441182 21.261413022085478 -1.6391218856311989 0 0 0
9962 1 2 0 47.619413321094484 22.253948514415676 -2.2751437649543083 0 0 0
9963 1 2 0 50.232644276270676 21.819017840994565 -2.11641942184618 0 0 0
7046 1 1 0 51.13167993436288 23.115167352860485 -1.6346411052348375 0 0 0
9971 1 2 0 50.458739237925435 24.48806501532259 -2.271341090955996 0 0 0
9918 1 2 0 52.64542598728086 22.668899485102322 -2.181729801784893 0 0 0
9864 1 2 0 52.619207364210936 19.880760575367773 -2.252469326337704 0 0 0
7009 1 1 0 53.34799206225515 21.24010390630098 -1.6510268719563228 0 0 0
9917 1 2 0 54.89908201345352 21.13442901647617 -2.1991328455394292 0 0 0
9915 1 2 0 57.540475949527846 20.984690509182283 -2.2478838457813293 0 0 0
7010 1 1 0 56.26938138896923 21.869372968681663 -1.6465922768426506 0 0 0
9919 1 2 0 56.142098082989925 23.418797923671573 -2.226542293210068 0 0 0
13500 1 2 0 56.37144594002241 21.90858605652596 -8.932592983647153e-07 0 0 0
7008 1 1 0 58.81993683561504 20.102642866773046 -1.6462062362770256 0 0 0
9916 1 2 0 60.25654680835412 20.781494126486432 -2.144797135241518 0 0 0
7012 1 1 0 60.88412409515578 22.236520492217885 -1.646199670808861 0 0 0
9920 1 2 0 62.4233612157492 22.444092288746763 -2.2253517031899444 0 0 0
9922 1 2 0 59.83754512693929 23.383529822471306 -2.237721743330967 0 0 0
6978 1 1 0 64.44494133227171 18.944650414701638 -1.6472610397973484 0 0 0
9870 1 2 0 64.27916122593795 20.533187008929577 -2.18346664455568 0 0 0
9871 1 2 0 68.30982554113243 19.574513922809587 -2.1892519248638824 0 0 0
7011 1 1 0 63.95195501575906 22.09599688139704 -1.6500262707228162 0 0 0
9921 1 2 0 64.97571979009972 23.33535062738751 -2.186048271478578 0 0 0
13501 1 2 0 64.01457919263419 22.095354241440393 -1.0692308129101221e-07 0 0 0
7014 1 1 0 69.60395861164396 20.492010776077738 -1.648148966498128 0 0 0
9923 1 2 0 70.87923648343832 19.590964223952216 -2.215219089024957 0 0 0
7013 1 1 0 72.41846041815745 19.48213673342681 -1.6426660616354352 0 0 0
9924 1 2 0 73.17740233578003 20.844532505429424 -2.1712604043826977 0 0 0
9925 1 2 0 69.74278092600433 22.086233596530548 -2.18867397560719 0 0 0
9935 1 2 0 74.53650294465857 23.096004210022574 -2.1831476465253457 0 0 0
7020 1 1 0 74.58378700500228 21.529796732112143 -1.6531427893249648 0 0 0
13510 1 2 0 74.67008928935724 21.52065218158346 -2.774314108811805e-07 0 0 0
7048 1 1 0 70.38309643304365 23.555623505744236 -1.6497397428391138 0 0 0
9974 1 2 0 71.92529721268328 23.856832391080513 -2.2220992015811816 0 0 0
7081 1 1 0 73.44239760952604 24.235796316669013 -1.647231479853781 0 0 0
9933 1 2 0 75.82964555106064 20.645384624951593 -2.315462530882451 0 0 0
9875 1 2 0 78.45329455262937 19.60573800123375 -2.2093708974039585 0 0 0
7019 1 1 0 77.28477459750495 20.56187034904566 -1.521518151769596 0 0 0
9934 1 2 0 77.80269427632355 22.12001156390223 -1.4903808736978024 0 0 0
7054 1 1 0 79.28494648241303 22.840772539572715 -1.5229347280404364 0 0 0
9881 1 2 0 80.34728981220816 21.797895890908087 -2.2649563378834836 0 0 0
13509 1 2 0 76.9922348358594 19.96239521242722 -4.94004843831172e-07 0 0 0
9982 1 2 0 78.95954602711886 24.273952241922487 -2.2864846018440526 0 0 0
9874 1 2 0 82.0095996420139 19.447452145304467 -2.2165260399886644 0 0 0
6985 1 1 0 81.66360921618602 20.974743908201592 -1.6465577609269666 0 0 0
9880 1 2 0 82.887142871662 21.913506915442554 -2.199390607553491 0 0 0
9878 1 2 0 85.38772637188494 21.08916219726258 -2.2342863928429386 0 0 0
6986 1 1 0 84.38309641107197 22.265129939466227 -1.6492455354694402 0 0 0
9882 1 2 0 84.7283063313528 23.741541581618314 -2.312501770090246 0 0 0
9876 1 2 0 87.36110055387947 19.245992857401028 -2.278570764112562 0 0 0
6984 1 1 0 86.87234889248187 20.680160873130223 -1.6476638803795471 0 0 0
9879 1 2 0 87.99962385268907 21.71470734786916 -2.254930427608289 0 0 0
9884 1 2 0 90.58615186880827 20.83370509987295 -2.1085111152654545 0 0 0
6987 1 1 0 91.22813701448665 19.386413956491513 -1.6337863639733687 0 0 0
7021 1 1 0 88.50336052893478 23.138849575235422 -1.6424808445898138 0 0 0
9936 1 2 0 90.05228336382105 23.451951810013632 -2.143809292997202 0 0 0
7022 1 1 0 91.12663302594481 22.305394652355673 -1.6340211418008923 0 0 0
9937 1 2 0 87.52801878462316 24.282174136337918 -2.26483384299851 0 0 0
13511 1 2 0 88.4101563656705 23.100865530180783 -7.504067870959067e-07 0 0 0
13474 1 2 0 86.81020706435103 20.657937314062004 5.263094795900321e-08 0 0 0
13512 1 2 0 91.25333288928746 22.34245166885941 -5.2989165167224125e-08 0 0 0
6988 1 1 0 94.24587704782752 19.012832882059463 -1.6505916075512603 0 0 0
9883 1 2 0 92.72980164998674 19.256694118957036 -2.289640620851434 0 0 0
9885 1 2 0 95.26490041192977 20.23087911270691 -2.202719204200101 0 0 0
9938 1 2 0 92.59854499553056 22.555231409082104 -2.284318729293522 0 0 0
7025 1 1 0 95.86292589532573 21.706038012251575 -1.648823741631341 0 0 0
9943 1 2 0 95.06984764352137 23.06966670411889 -2.189897413601434 0 0 0
9942 1 2 0 97.36290401959195 22.076537511329107 -2.2343296058051525 0 0 0
7057 1 1 0 93.64170891947008 23.670305656443617 -1.646467188476821 0 0 0
13478 1 2 0 94.2788142943846 19.05092254144773 -3.505213227381449e-07 0 0 0
13515 1 2 0 95.8364375086413 21.62119649796711 -1.2236541547527698e-07 0 0 0
9392 1 2 0 101.61161238910152 19.949293927686174 -2.2528595166193073 0 0 0
6674 1 1 0 101.33956074846041 21.453814617879733 -1.6430365995867418 0 0 0
7026 1 1 0 98.68942482990869 22.88091322547844 -1.6422923275518413 0 0 0
9394 1 2 0 99.84046397153611 21.839722048697833 -2.1723563976068125 0 0 0
9390 1 2 0 102.31823577372161 22.632213398369785 -2.265731426305811 0 0 0