ITEM: TIMESTEP
1891
ITEM: NUMBER OF ATOMS
15552
ITEM: BOX BOUNDS pp pp pp
0.0000000000000000e+00 2.0429185536369235e+02
0.0000000000000000e+00 1.7710594603237962e+02
-1.0000000000000000e+02 1.0000000000000000e+02
ITEM: ATOMS id type element x y z v_uncoordination
1 1 Si 107.607 41.2409 1.63475 0
2 1 Si 104.931 39.5478 1.64702 0
3 1 Si 110.135 39.1099 1.6156 0
4 1 Si 107.408 34.4901 1.59998 0
5 1 Si 110.158 35.9241 1.59549 0
6 1 Si 104.987 36.3947 1.64 0
7 1 Si 106.904 44.4964 1.62558 0
8 1 Si 104.136 46.3053 1.6218 0
9 1 Si 101.984 40.6706 1.61212 0
10 1 Si 99.772 42.9671 1.63595 0
11 1 Si 100.847 45.9295 1.62572 0
12 1 Si 113.25 39.6687 1.63718 0
13 1 Si 113.372 42.9607 1.60662 0
14 1 Si 108.997 46.9904 1.62337 0
15 1 Si 111.991 45.963 1.64045 0
16 1 Si 123.713 38.9215 1.60129 0
17 1 Si 121.397 36.7016 1.60311 0
18 1 Si 126.701 37.5854 1.63839 0
19 1 Si 126.383 34.2395 1.62653 0
20 1 Si 123.004 33.8389 1.63087 0
21 1 Si 122.014 41.6753 1.63039 0
22 1 Si 118.535 38.2576 1.62621 0
23 1 Si 118.804 41.4806 1.61512 0
24 1 Si 128.927 42.9847 1.62862 0
25 1 Si 126.36 44.9535 1.61626 0
26 1 Si 129.256 39.7318 1.61881 0
27 1 Si 123.171 44.6053 1.62896 0
28 1 Si 151.149 39.9923 1.6476 0
29 1 Si 148.736 37.9115 1.63054 0
30 1 Si 154.231 39.4789 1.62946 0
31 1 Si 152.698 34.1985 1.63312 0
32 1 Si 149.386 34.7031 1.63354 0
33 1 Si 154.957 36.4751 1.61726 0
34 1 Si 150.932 43.082 1.6521 0
35 1 Si 145.787 39.2214 1.64015 0
36 1 Si 145.532 42.4454 1.63591 0
37 1 Si 148.086 44.3137 1.61981 0
38 1 Si 156.488 44.2891 1.62592 0
39 1 Si 156.885 41.2011 1.63709 0
40 1 Si 153.395 44.9957 1.61731 0
41 1 Si 158.825 46.4746 1.62697 0
42 1 Si 162.048 45.6507 1.65082 0
43 1 Si 163.658 42.79 1.62018 0
44 1 Si 162.665 39.692 1.63199 0
45 1 Si 159.491 39.4247 1.62284 0
46 1 Si 157.134 49.391 1.62789 0
47 1 Si 151.787 47.7455 1.62915 0
48 1 Si 153.735 50.2534 1.62092 0
49 1 Si 164.422 47.8499 1.6015 0
50 1 Si 165.01 51.0191 1.63116 0
51 1 Si 159.197 51.9165 1.62027 0
52 1 Si 162.37 52.8059 1.62517 0
53 1 Si 105.692 3.94851 1.60774 0
54 1 Si 102.417 3.59665 1.63604 0
55 1 Si 108.366 5.84305 1.63073 0
56 1 Si 107.531 8.86472 1.6282 0
57 1 Si 104.39 10.0246 1.62392 0
58 1 Si 100.928 9.08918 1.64564 0
59 1 Si 99.8958 5.78316 1.63321 0
60 1 Si 107.615 1.40958 1.63147 0
61 1 Si 106.75 175.491 1.6323 0
62 1 Si 101.566 0.461774 1.62695 0
63 1 Si 103.636 175.149 1.63778 0
64 1 Si 110.733 1.82601 1.63352 0
65 1 Si 111.534 4.88635 1.61875 0
66 1 Si 112.75 176.471 1.63813 0
67 1 Si 116.915 2.91441 1.63486 0
68 1 Si 114.793 5.28806 1.61536 0
69 1 Si 115.863 177.074 1.64511 0
70 1 Si 108.697 172.934 1.63542 0
71 1 Si 111.83 173.407 1.63303 0
72 1 Si 120.068 3.39974 1.63224 0
73 1 Si 117.591 6.97019 1.64039 0
74 1 Si 120.815 6.44773 1.60529 0
75 1 Si 122.309 1.12108 1.63793 0
76 1 Si 117.998 174.786 1.62996 0
77 1 Si 121.146 175.294 1.63725 0
78 1 Si 134.895 5.09161 1.59932 0
79 1 Si 137.9 3.73786 1.62822 0
80 1 Si 134.377 8.23423 1.61114 0
81 1 Si 140.498 6.06394 1.6316 0
82 1 Si 139.742 9.43538 1.62993 0
83 1 Si 136.554 10.4921 1.61772 0
84 1 Si 131.691 5.40908 1.6413 0
85 1 Si 138.294 0.34229 1.62306 0
86 1 Si 129.522 3.09044 1.62753 0
87 1 Si 130.638 176.83 1.60757 0
88 1 Si 133.006 174.016 1.62684 0
89 1 Si 136.421 174.542 1.65084 0
90 1 Si 131.2 8.60722 1.60741 0
91 1 Si 143.789 4.92369 1.62948 0
92 1 Si 144.022 1.66012 1.62649 0
93 1 Si 141.516 176.847 1.61895 0
94 1 Si 147.008 6.12529 1.63044 0
95 1 Si 147.707 9.37888 1.62996 0
96 1 Si 145.32 11.7577 1.62467 0
97 1 Si 141.965 11.961 1.65003 0
98 1 Si 149.69 4.04246 1.61428 0
99 1 Si 149.477 0.780592 1.62143 0
100 1 Si 146.575 176.708 1.62998 0
101 1 Si 152.955 4.1442 1.64006 0
102 1 Si 155.17 6.5444 1.62922 0
103 1 Si 154.153 9.72974 1.6317 0
104 1 Si 150.855 10.6135 1.61872 0
105 1 Si 154.126 1.12359 1.61444 0
106 1 Si 151.996 175.883 1.61804 0
107 1 Si 158.406 5.59173 1.63453 0
108 1 Si 159.336 2.31363 1.6386 0
109 1 Si 157.048 177.007 1.62996 0
110 1 Si 160.744 8.01039 1.63935 0
111 1 Si 159.953 11.2865 1.63943 0
112 1 Si 156.666 12.0292 1.63607 0
113 1 Si 164.869 3.90406 1.6495 0
114 1 Si 163.984 7.14025 1.64848 0
115 1 Si 162.567 1.4381 1.63011 0
116 1 Si 168.139 3.17887 1.64285 0
117 1 Si 170.59 5.46916 1.62772 0
118 1 Si 169.638 8.64004 1.63658 0
119 1 Si 166.381 9.50906 1.63475 0
120 1 Si 169.072 0.0214896 1.65136 0
121 1 Si 166.827 174.702 1.64749 0
122 1 Si 163.549 175.316 1.64161 0
123 1 Si 173.919 4.75467 1.63366 0
124 1 Si 174.747 1.5188 1.62402 0
125 1 Si 172.289 176.415 1.6243 0
126 1 Si 176.307 7.15591 1.64149 0
127 1 Si 175.396 10.382 1.62245 0
128 1 Si 172.12 10.8742 1.63387 0
129 1 Si 181.681 4.17534 1.63108 0
130 1 Si 179.606 6.71692 1.64147 0
131 1 Si 180.746 1.12396 1.65147 0
132 1 Si 177.733 0.0825654 1.6376 0
133 1 Si 184.953 4.36026 1.62945 0
134 1 Si 186.421 7.15301 1.63435 0
135 1 Si 181.337 9.40482 1.61866 0
136 1 Si 184.457 9.5576 1.65063 0
137 1 Si 187.257 2.13382 1.64241 0
138 1 Si 186.228 176.31 1.63916 0
139 1 Si 183.108 176.066 1.62825 0
140 1 Si 190.437 2.43549 1.64364 0
141 1 Si 191.586 5.39453 1.63435 0
142 1 Si 189.543 7.7709 1.64472 0
143 1 Si 192.428 177.016 1.6328 0
144 1 Si 196.554 3.70115 1.63214 0
145 1 Si 194.671 6.15011 1.63498 0
146 1 Si 195.509 0.734851 1.6117 0
147 1 Si 188.03 173.683 1.6457 0
148 1 Si 191.202 174.016 1.63128 0
149 1 Si 199.633 4.26534 1.63435 0
150 1 Si 201.09 7.04752 1.64317 0
151 1 Si 196.132 8.96845 1.63974 0
152 1 Si 199.291 9.58698 1.63877 0
153 1 Si 201.181 1.57826 1.6159 0
154 1 Si 1.503 4.74773 1.64074 0
155 1 Si 204.194 7.42964 1.62831 0
156 1 Si 0.0392712 1.90987 1.64377 0
157 1 Si 198.541 176.902 1.63141 0
158 1 Si 4.56655 5.58785 1.62027 0
159 1 Si 1.67157 10.0769 1.61323 0
160 1 Si 4.68158 8.8807 1.63515 0
161 1 Si 6.33646 2.88321 1.63892 0
162 1 Si 5.1178 176.91 1.62921 0
163 1 Si 1.96142 176.511 1.62141 0
164 1 Si 116.547 9.84029 1.63144 0
165 1 Si 110.4 10.3923 1.60982 0
166 1 Si 113.554 10.6762 1.60639 0
167 1 Si 123.953 7.49129 1.6373 0
168 1 Si 123.613 11.1251 1.62444 0
169 1 Si 117.97 12.6087 1.6285 0
170 1 Si 120.973 13.6673 1.62639 0
171 1 Si 126.408 4.69374 1.61035 0
172 1 Si 125.469 1.56206 1.63041 0
173 1 Si 129.576 11.5182 1.61366 0
174 1 Si 126.447 12.8204 1.61255 0
175 1 Si 127.482 176.049 1.62671 0
176 1 Si 135.033 13.4784 1.6327 0
177 1 Si 131.638 14.0956 1.61118 0
178 1 Si 150.228 13.8158 1.63087 0
179 1 Si 147.04 14.5364 1.62516 0
180 1 Si 165.62 12.8002 1.63756 0
181 1 Si 162.381 13.7106 1.63367 0
182 1 Si 180.528 12.4973 1.62226 0
183 1 Si 177.404 13.1282 1.62639 0
184 1 Si 190.861 10.6756 1.63668 0
185 1 Si 194.018 11.2854 1.63987 0
186 1 Si 200.999 12.3138 1.63599 0
187 1 Si 0.0053045 12.8295 1.64381 0
188 1 Si 105.802 12.9977 1.64338 0
189 1 Si 109.034 13.2186 1.58965 0
190 1 Si 114.96 13.5282 1.57551 0
191 1 Si 137.457 15.6879 1.63419 0
192 1 Si 140.681 15.0101 1.62129 0
193 1 Si 152.623 16.0087 1.64136 0
194 1 Si 155.886 15.2505 1.63448 0
195 1 Si 168.214 14.9492 1.61614 0
196 1 Si 171.331 14.0027 1.62189 0
197 1 Si 185.696 12.4216 1.62208 0
198 1 Si 183.16 14.3 1.62103 0
199 1 Si 188.774 13.0332 1.63948 0
200 1 Si 195.433 14.1209 1.63361 0
201 1 Si 198.696 14.531 1.64201 0
202 1 Si 1.61347 15.7179 1.62952 0
203 1 Si 4.95093 16.4714 1.64071 0
204 1 Si 7.26644 10.8515 1.62307 0
205 1 Si 7.49867 14.1853 1.62989 0
206 1 Si 104.172 15.7641 1.6186 0
207 1 Si 101.046 16.6489 1.62065 0
208 1 Si 98.192 11.2965 1.63018 0
209 1 Si 98.4482 14.6523 1.62952 0
210 1 Si 111.962 14.549 1.64418 0
211 1 Si 129.559 16.8238 1.62143 0
212 1 Si 126.208 16.2199 1.61072 0
213 1 Si 137.051 18.888 1.62725 0
214 1 Si 130.839 19.9138 1.6319 0
215 1 Si 134.123 20.4251 1.63514 0
216 1 Si 145.827 17.6322 1.62734 0
217 1 Si 142.463 17.7941 1.62202 0
218 1 Si 151.494 19.0735 1.6285 0
219 1 Si 148.201 20.0325 1.63411 0
220 1 Si 161.585 17.0033 1.63377 0
221 1 Si 158.306 17.5632 1.63107 0
222 1 Si 168.899 18.172 1.62804 0
223 1 Si 163.55 19.7838 1.61931 0
224 1 Si 166.737 20.4834 1.62562 0
225 1 Si 173.467 16.4846 1.60998 0
226 1 Si 176.717 16.4209 1.62569 0
227 1 Si 189.778 16.0458 1.63909 0
228 1 Si 193.018 16.2739 1.62612 0
229 1 Si 200.297 17.2901 1.63124 0
230 1 Si 203.526 17.9683 1.61919 0
231 1 Si 111.725 17.5873 1.63796 0
232 1 Si 108.826 18.8918 1.60623 0
233 1 Si 105.696 18.5705 1.6173 0
234 1 Si 120.46 17.1289 1.60576 0
235 1 Si 114.619 18.8756 1.60296 0
236 1 Si 117.8 19.2648 1.65233 0
237 1 Si 123.479 18.5678 1.62829 0
238 1 Si 140.14 20.1575 1.63015 0
239 1 Si 154.155 21.0111 1.63448 0
240 1 Si 157.425 20.6927 1.63968 0
241 1 Si 167.391 46.6717 1.6005 0
242 1 Si 166.803 43.5371 1.62659 0
243 1 Si 169.59 49.0342 1.63005 0
244 1 Si 168.165 51.9784 1.6207 0
245 1 Si 171.971 19.3332 1.60932 0
246 1 Si 183.987 17.3184 1.63002 0
247 1 Si 187.165 17.9789 1.61999 0
248 1 Si 194.542 18.9941 1.63991 0
249 1 Si 197.742 19.1869 1.63151 0
250 1 Si 109.777 21.8378 1.60688 0
251 1 Si 112.835 21.4575 1.63278 0
252 1 Si 129.134 22.7869 1.62096 0
253 1 Si 123.462 22.0364 1.63925 0
254 1 Si 126.113 23.7879 1.63266 0
255 1 Si 134.749 23.5202 1.6267 0
256 1 Si 130.016 25.9206 1.62052 0
257 1 Si 133.076 26.1822 1.62653 0
258 1 Si 147.505 23.3415 1.61686 0
259 1 Si 140.466 23.4279 1.61459 0
260 1 Si 142.302 26.1823 1.62566 0
261 1 Si 145.597 26.1678 1.62736 0
262 1 Si 153.276 24.0088 1.6525 0
263 1 Si 150.264 24.8945 1.60868 0
264 1 Si 159.552 23.278 1.63078 0
265 1 Si 162.794 23.0121 1.62691 0
266 1 Si 178.401 19.4218 1.63088 0
267 1 Si 173.434 22.3262 1.63537 0
268 1 Si 176.858 22.4748 1.63003 0
269 1 Si 181.717 19.6059 1.61798 0
270 1 Si 186.859 21.1561 1.62568 0
271 1 Si 192.705 21.5368 1.61788 0
272 1 Si 189.695 22.63 1.62749 0
273 1 Si 0.169249 21.0942 1.62398 0
274 1 Si 198.816 22.0692 1.63465 0
275 1 Si 201.865 22.9672 1.65141 0
276 1 Si 3.26286 22.1084 1.62131 0
277 1 Si 5.54777 19.7714 1.6013 0
278 1 Si 103.721 21.1516 1.62522 0
279 1 Si 100.646 19.9694 1.62408 0
280 1 Si 108.303 24.6416 1.61184 0
281 1 Si 105.046 24.1878 1.63578 0
282 1 Si 117.541 22.4995 1.60812 0
283 1 Si 114.682 23.8843 1.6143 0
284 1 Si 121.813 24.9789 1.61465 0
285 1 Si 118.702 25.4662 1.63119 0
286 1 Si 137.591 24.7948 1.62151 0
287 1 Si 158.505 26.3521 1.64894 0
288 1 Si 155.299 26.4102 1.61818 0
289 1 Si 165.247 25.3904 1.61924 0
290 1 Si 167.916 23.5682 1.61662 0
291 1 Si 183.725 22.1557 1.61248 0
292 1 Si 195.684 22.6262 1.63349 0
293 1 Si 113.729 26.8957 1.63474 0
294 1 Si 110.372 27.1934 1.60701 0
295 1 Si 125.665 27.0152 1.63407 0
296 1 Si 122.703 28.1663 1.60091 0
297 1 Si 128.326 28.6721 1.62755 0
298 1 Si 137.355 27.9597 1.63653 0
299 1 Si 134.332 29.0845 1.62353 0
300 1 Si 140.409 28.978 1.61917 0
301 1 Si 150.153 28.0498 1.61704 0
302 1 Si 147.174 29.2008 1.62762 0
303 1 Si 160.132 29.1781 1.62248 0
304 1 Si 165.944 28.7873 1.62954 0
305 1 Si 163.178 30.6152 1.63321 0
306 1 Si 171.057 24.7128 1.63071 0
307 1 Si 178.883 25.2796 1.62724 0
308 1 Si 182.273 25.048 1.63394 0
309 1 Si 195.719 25.6309 1.63967 0
310 1 Si 189.84 25.7994 1.62498 0
311 1 Si 192.821 26.7557 1.62597 0
312 1 Si 201.754 26.0891 1.65171 0
313 1 Si 198.662 26.7098 1.63607 0
314 1 Si 204.002 28.3669 1.62369 0
315 1 Si 3.00364 28.1696 1.62178 0
316 1 Si 4.42711 25.2114 1.63876 0
317 1 Si 116.758 28.1264 1.6312 0
318 1 Si 129.232 49.625 1.62821 0
319 1 Si 126.379 48.2014 1.63567 0
320 1 Si 131.988 47.8754 1.62352 0
321 1 Si 131.72 44.6456 1.6337 0
322 1 Si 129.205 52.8233 1.63831 0
323 1 Si 123.509 49.7986 1.60758 0
324 1 Si 121.735 52.6527 1.62675 0
325 1 Si 123.564 55.1621 1.63629 0
326 1 Si 126.712 54.8322 1.61652 0
327 1 Si 134.903 49.3811 1.63065 0
328 1 Si 134.936 52.657 1.63694 0
329 1 Si 132.106 54.1942 1.62658 0
330 1 Si 153.226 28.844 1.62738 0
331 1 Si 154.67 31.6339 1.63407 0
332 1 Si 157.939 31.5124 1.63125 0
333 1 Si 171.656 28.0058 1.62211 0
334 1 Si 169.151 30.2356 1.61227 0
335 1 Si 174.653 29.4832 1.62464 0
336 1 Si 177.847 28.4873 1.63557 0
337 1 Si 184.431 27.5257 1.61353 0
338 1 Si 187.646 28.0454 1.62867 0
339 1 Si 194.066 29.5641 1.61899 0
340 1 Si 197.185 29.4086 1.6469 0
341 1 Si 107.896 29.3845 1.62497 0
342 1 Si 104.556 29.4881 1.60842 0
343 1 Si 102.983 26.6508 1.6341 0
344 1 Si 128.95 31.8841 1.636 0
345 1 Si 121.118 31.1198 1.62615 0
346 1 Si 132.334 31.7313 1.63235 0
347 1 Si 140.581 32.2968 1.63895 0
348 1 Si 134.476 34.1047 1.6276 0
349 1 Si 137.712 34.0155 1.60348 0
350 1 Si 146.69 32.5849 1.63578 0
351 1 Si 143.529 33.9766 1.61647 0
352 1 Si 163.074 33.9531 1.61599 0
353 1 Si 159.856 34.0232 1.62396 0
354 1 Si 170.858 33.2421 1.61937 0
355 1 Si 174.112 32.7162 1.61783 0
356 1 Si 180.191 30.9174 1.62028 0
357 1 Si 183.415 30.5537 1.6141 0
358 1 Si 188.94 31.0474 1.6245 0
359 1 Si 192.092 32.0139 1.63479 0
360 1 Si 157.581 54.6597 1.62938 0
361 1 Si 162.945 55.9964 1.6195 0
362 1 Si 159.902 56.9039 1.62548 0
363 1 Si 199.208 31.7179 1.62188 0
364 1 Si 202.337 31.1193 1.62044 0
365 1 Si 109.377 32.0982 1.64401 0
366 1 Si 112.186 33.5092 1.61569 0
367 1 Si 117.722 31.282 1.62654 0
368 1 Si 115.384 33.7994 1.64493 0
369 1 Si 164.592 36.9897 1.62829 0
370 1 Si 170.548 36.5985 1.62864 0
371 1 Si 167.737 38.1458 1.62198 0
372 1 Si 176.473 35.0479 1.62939 0
373 1 Si 179.652 34.1369 1.61813 0
374 1 Si 186.068 32.4912 1.62907 0
375 1 Si 194.059 34.6277 1.652 0
376 1 Si 197.45 34.393 1.59905 0
377 1 Si 203.714 33.9221 1.60977 0
378 1 Si 2.77966 33.6686 1.63453 0
379 1 Si 4.89598 30.9958 1.62253 0
380 1 Si 101.661 30.9132 1.59924 0
381 1 Si 99.9073 33.5021 1.63521 0
382 1 Si 101.987 35.7207 1.61307 0
383 1 Si 134.451 37.2634 1.62108 0
384 1 Si 132.554 39.8043 1.63219 0
385 1 Si 9.49337 3.40373 1.62294 0
386 1 Si 11.17 6.23243 1.63952 0
387 1 Si 10.1666 9.33255 1.61643 0
388 1 Si 10.8735 0.48794 1.62339 0
389 1 Si 6.63629 174.024 1.63928 0
390 1 Si 9.76605 174.564 1.63408 0
391 1 Si 137.623 37.2194 1.60374 0
392 1 Si 15.8105 3.26997 1.61527 0
393 1 Si 14.4151 6.07694 1.61784 0
394 1 Si 13.9675 0.761156 1.62728 0
395 1 Si 143.145 37.3226 1.61697 0
396 1 Si 140.278 39.0132 1.63437 0
397 1 Si 18.7197 1.99452 1.63718 0
398 1 Si 19.6509 7.00225 1.63151 0
399 1 Si 21.1247 3.96267 1.63127 0
400 1 Si 16.6454 8.35873 1.61118 0
401 1 Si 15.8731 175.443 1.62664 0
402 1 Si 18.9572 175.972 1.6135 0
403 1 Si 158.115 36.5758 1.62473 0
404 1 Si 25.6414 4.96073 1.63489 0
405 1 Si 24.5314 7.90068 1.61194 0
406 1 Si 24.0162 2.2523 1.63325 0
407 1 Si 21.7378 9.33374 1.61752 0
408 1 Si 28.7531 5.23552 1.63327 0
409 1 Si 29.2715 8.43261 1.64088 0
410 1 Si 26.615 10.2687 1.6007 0
411 1 Si 30.4115 2.48739 1.62865 0
412 1 Si 29.0783 176.525 1.63277 0
413 1 Si 25.6865 176.415 1.64742 0
414 1 Si 33.5493 3.34163 1.63768 0
415 1 Si 34.3895 6.61506 1.65409 0
416 1 Si 32.3208 9.32208 1.63611 0
417 1 Si 35.3685 0.576935 1.61764 0
418 1 Si 34.4828 174.433 1.62301 0
419 1 Si 31.1057 173.762 1.62789 0
420 1 Si 38.5748 0.90421 1.61689 0
421 1 Si 39.6661 4.09893 1.63242 0
422 1 Si 37.6734 7.04892 1.64869 0
423 1 Si 176.009 38.3356 1.62607 0
424 1 Si 172.858 39.092 1.62651 0
425 1 Si 39.7392 174.836 1.62682 0
426 1 Si 43.0056 3.60617 1.62915 0
427 1 Si 44.4607 0.384571 1.61886 0
428 1 Si 43.0504 174.381 1.62281 0
429 1 Si 37.2897 172.449 1.62881 0
430 1 Si 50.3098 5.09717 1.6311 0
431 1 Si 47.7315 7.02903 1.60557 0
432 1 Si 53.4763 5.92839 1.62123 0
433 1 Si 54.7363 9.00245 1.63774 0
434 1 Si 47.2366 10.1886 1.61126 0
435 1 Si 52.8729 11.7115 1.61481 0
436 1 Si 49.556 12.4675 1.63813 0
437 1 Si 49.9835 1.88285 1.60485 0
438 1 Si 44.5508 6.5705 1.61499 0
439 1 Si 47.6813 176.769 1.63347 0
440 1 Si 54.8524 2.94215 1.62678 0
441 1 Si 52.8394 0.450614 1.5996 0
442 1 Si 185.779 35.6685 1.62658 0
443 1 Si 182.382 36.1217 1.62284 0
444 1 Si 59.9164 4.46555 1.60154 0
445 1 Si 57.9031 1.98907 1.62978 0
446 1 Si 60.3552 7.61966 1.63173 0
447 1 Si 57.9726 9.84406 1.62167 0
448 1 Si 62.6021 2.8078 1.60796 0
449 1 Si 62.4588 176.759 1.62506 0
450 1 Si 59.2953 176.076 1.63323 0
451 1 Si 188.644 37.5765 1.62085 0
452 1 Si 192.141 37.322 1.62542 0
453 1 Si 65.1021 4.64114 1.63228 0
454 1 Si 63.614 7.5537 1.62888 0
455 1 Si 67.9968 3.15654 1.63423 0
456 1 Si 68.259 176.79 1.63517 0
457 1 Si 65.3026 175.182 1.62699 0
458 1 Si 69.9078 5.93315 1.63068 0
459 1 Si 65.5001 10.0936 1.61911 0
460 1 Si 68.6404 9.09279 1.61036 0
461 1 Si 200.662 35.3495 1.64013 0
462 1 Si 74.3904 2.39564 1.61147 0
463 1 Si 73.1658 5.5307 1.62737 0
464 1 Si 73.8567 176.277 1.62693 0
465 1 Si 71.0656 174.81 1.6253 0
466 1 Si 79.1156 4.49697 1.61842 0
467 1 Si 78.2153 7.60993 1.63686 0
468 1 Si 77.5375 1.79318 1.61556 0
469 1 Si 74.9552 8.4274 1.61866 0
470 1 Si 82.2093 3.7953 1.6227 0
471 1 Si 83.5425 6.72079 1.63087 0
472 1 Si 81.1945 9.10755 1.63421 0
473 1 Si 78.713 175.892 1.63398 0
474 1 Si 76.2114 173.981 1.62205 0
475 1 Si 83.3706 0.805152 1.63296 0
476 1 Si 88.0709 3.45471 1.62733 0
477 1 Si 86.7883 6.42539 1.62992 0
478 1 Si 86.5064 0.683041 1.61841 0
479 1 Si 81.7974 175.056 1.62629 0
480 1 Si 115.532 37.1564 1.63349 0
481 1 Si 91.1692 2.87002 1.62108 0
482 1 Si 93.5675 5.11523 1.62817 0
483 1 Si 89.2022 8.61721 1.62315 0
484 1 Si 92.5158 8.14889 1.62943 0
485 1 Si 90.9897 176.705 1.62521 0
486 1 Si 88.1805 175.058 1.61145 0
487 1 Si 96.0842 1.06504 1.61583 0
488 1 Si 96.7531 4.30313 1.63666 0
489 1 Si 93.942 175.632 1.63523 0
490 1 Si 98.6341 176.377 1.63592 0
491 1 Si 94.6612 172.393 1.59574 0
492 1 Si 97.6898 173.35 1.62071 0
493 1 Si 12.3595 11.7274 1.625 0
494 1 Si 15.6602 11.466 1.62563 0
495 1 Si 21.5366 12.5512 1.6078 0
496 1 Si 24.8978 13.0816 1.6379 0
497 1 Si 38.2604 10.4552 1.62103 0
498 1 Si 32.6492 12.6758 1.63421 0
499 1 Si 35.9737 12.9831 1.61413 0
500 1 Si 43.9887 9.8487 1.62663 0
501 1 Si 41.2447 11.9522 1.61726 0
502 1 Si 168.982 41.257 1.62394 0
503 1 Si 181.636 39.2133 1.62052 0
504 1 Si 178.626 40.4264 1.6107 0
505 1 Si 184.171 41.2429 1.62257 0
506 1 Si 187.381 40.6112 1.63331 0
507 1 Si 81.8409 12.4611 1.64927 0
508 1 Si 73.4557 11.5848 1.62933 0
509 1 Si 78.8412 14.5631 1.62199 0
510 1 Si 75.3171 14.372 1.63402 0
511 1 Si 88.5051 11.7378 1.623 0
512 1 Si 85.436 13.4429 1.6226 0
513 1 Si 200.425 38.4691 1.6302 0
514 1 Si 194.3 39.8677 1.63445 0
515 1 Si 197.613 40.0865 1.62122 0
516 1 Si 94.7603 10.5669 1.61454 0
517 1 Si 203.296 39.9064 1.61843 0
518 1 Si 2.0929 39.2207 1.63634 0
519 1 Si 3.99991 36.6211 1.63957 0
520 1 Si 116.452 43.6927 1.64006 0
521 1 Si 10.8562 14.5811 1.61065 0
522 1 Si 134.243 42.6716 1.61643 0
523 1 Si 140 42.32 1.6214 0
524 1 Si 137.244 44.1452 1.63768 0
525 1 Si 18.2767 13.5784 1.62173 0
526 1 Si 30.3485 15.3896 1.63132 0
527 1 Si 26.893 15.754 1.62772 0
528 1 Si 142.777 44.0399 1.62866 0
529 1 Si 55.3639 13.8753 1.62123 0
530 1 Si 48.4023 15.5709 1.63521 0
531 1 Si 51.1487 17.226 1.59427 0
532 1 Si 54.2996 16.8417 1.6335 0
533 1 Si 172.161 42.3596 1.62905 0
534 1 Si 58.5604 13.0835 1.61823 0
535 1 Si 179.601 43.5883 1.63052 0
536 1 Si 182.886 44.2105 1.62605 0
537 1 Si 64.5605 13.2439 1.61182 0
538 1 Si 61.5284 14.7868 1.654 0
539 1 Si 70.0371 12.0822 1.62644 0
540 1 Si 67.5901 14.6182 1.61714 0
541 1 Si 189.523 43.0295 1.64415 0
542 1 Si 192.766 42.7114 1.63358 0
543 1 Si 202.41 42.9332 1.62004 0
544 1 Si 199.231 42.8725 1.63767 0
545 1 Si 91.8674 12.2746 1.62073 0
546 1 Si 13.687 16.4453 1.63536 0
547 1 Si 17.1307 16.6116 1.63015 0
548 1 Si 37.1311 16.1109 1.61496 0
549 1 Si 31.7018 18.462 1.60682 0
550 1 Si 34.9601 18.925 1.61301 0
551 1 Si 40.4519 15.3479 1.61732 0
552 1 Si 45.758 17.5994 1.62122 0
553 1 Si 42.3292 18.1183 1.63706 0
554 1 Si 204.257 45.6074 1.63851 0
555 1 Si 3.13173 44.8975 1.64194 0
556 1 Si 3.88659 41.8124 1.62768 0
557 1 Si 79.028 17.8624 1.62365 0
558 1 Si 73.5047 17.2585 1.61377 0
559 1 Si 76.0511 19.1617 1.62756 0
560 1 Si 121.464 47.366 1.60172 0
561 1 Si 116.252 46.872 1.61498 0
562 1 Si 118.622 48.8635 1.62415 0
563 1 Si 86.5485 16.6267 1.62913 0
564 1 Si 81.4261 20.0875 1.63402 0
565 1 Si 84.6931 19.3738 1.6483 0
566 1 Si 92.5425 15.3064 1.6254 0
567 1 Si 89.8519 17.0982 1.62562 0
568 1 Si 137.618 47.5293 1.63926 0
569 1 Si 95.6146 16.3173 1.62367 0
570 1 Si 143.142 47.2425 1.6288 0
571 1 Si 140.574 49.1133 1.62111 0
572 1 Si 148.59 47.4293 1.61263 0
573 1 Si 145.871 49.0274 1.62955 0
574 1 Si 13.03 19.4626 1.6053 0
575 1 Si 10.905 21.6886 1.6154 0
576 1 Si 7.85756 22.0262 1.63614 0
577 1 Si 19.3765 19.1404 1.61249 0
578 1 Si 15.0752 21.8008 1.61674 0
579 1 Si 18.1374 22.1086 1.61012 0
580 1 Si 25.4559 18.8298 1.6143 0
581 1 Si 22.4798 20.1461 1.63915 0
582 1 Si 27.0989 21.6813 1.61644 0
583 1 Si 30.2784 21.4786 1.61743 0
584 1 Si 174.103 45.4482 1.62737 0
585 1 Si 177.516 46.0563 1.63539 0
586 1 Si 185.102 46.7041 1.62388 0
587 1 Si 188.249 45.9917 1.62544 0
588 1 Si 50.9188 20.3795 1.59431 0
589 1 Si 47.7617 20.1439 1.6299 0
590 1 Si 194.668 45.3311 1.63066 0
591 1 Si 197.845 45.7032 1.64036 0
592 1 Si 55.938 19.6233 1.61933 0
593 1 Si 53.6865 21.9716 1.62645 0
594 1 Si 61.6947 18.1524 1.61468 0
595 1 Si 59.1203 20.2207 1.62729 0
596 1 Si 107.942 50.1124 1.62686 0
597 1 Si 104.82 49.4876 1.62817 0
598 1 Si 67.553 18.0766 1.63544 0
599 1 Si 64.5183 19.9564 1.61199 0
600 1 Si 113.632 48.7123 1.6026 0
601 1 Si 70.7364 19.2773 1.63663 0
602 1 Si 91.7508 19.7065 1.63635 0
603 1 Si 95.0094 19.455 1.61417 0
604 1 Si 12.9534 24.0659 1.61336 0
605 1 Si 172.794 48.5718 1.6339 0
606 1 Si 40.6158 21.2564 1.63427 0
607 1 Si 34.9344 22.391 1.62201 0
608 1 Si 37.9533 23.6947 1.64511 0
609 1 Si 46.234 22.7782 1.60675 0
610 1 Si 43.1604 23.0363 1.5966 0
611 1 Si 179.42 48.8722 1.61916 0
612 1 Si 185.129 50.0419 1.63109 0
613 1 Si 182.105 50.8979 1.63266 0
614 1 Si 190.273 48.4436 1.62741 0
615 1 Si 193.391 48.1719 1.63198 0
616 1 Si 199.53 48.4813 1.61894 0
617 1 Si 202.78 48.5257 1.61543 0
618 1 Si 74.9932 22.1601 1.6281 0
619 1 Si 71.7426 22.508 1.61894 0
620 1 Si 80.3121 23.2601 1.63057 0
621 1 Si 77.2342 24.4271 1.626 0
622 1 Si 113.769 51.9561 1.63675 0
623 1 Si 108.579 53.3608 1.62476 0
624 1 Si 111.588 54.4981 1.62821 0
625 1 Si 86.6401 21.9442 1.62666 0
626 1 Si 89.8403 22.2122 1.6307 0
627 1 Si 117 51.6992 1.62714 0
628 1 Si 118.729 54.3129 1.63155 0
629 1 Si 97.6019 21.4975 1.6281 0
630 1 Si 142.342 51.9576 1.62805 0
631 1 Si 137.4 54.7341 1.61878 0
632 1 Si 140.605 54.6057 1.63497 0
633 1 Si 7.64499 25.2664 1.61964 0
634 1 Si 145.692 52.2453 1.62618 0
635 1 Si 151.773 53.113 1.61838 0
636 1 Si 148.409 54.392 1.64979 0
637 1 Si 22.6305 23.4477 1.6364 0
638 1 Si 19.7444 24.9016 1.63007 0
639 1 Si 25.6364 24.6271 1.61616 0
640 1 Si 154.363 55.101 1.63402 0
641 1 Si 32.0328 24.3064 1.61461 0
642 1 Si 174.552 51.3978 1.60702 0
643 1 Si 177.685 51.4431 1.61966 0
644 1 Si 190.145 51.6314 1.62374 0
645 1 Si 187.225 52.7203 1.62207 0
646 1 Si 54.2824 25.1662 1.63256 0
647 1 Si 46.4094 25.832 1.62518 0
648 1 Si 51.8664 27.452 1.60609 0
649 1 Si 48.6577 27.9025 1.63729 0
650 1 Si 59.899 23.393 1.61651 0
651 1 Si 57.5683 25.8363 1.62261 0
652 1 Si 63.2461 23.2327 1.6237 0
653 1 Si 194.931 50.9466 1.63625 0
654 1 Si 198.054 51.3394 1.63524 0
655 1 Si 70.7247 25.7593 1.62441 0
656 1 Si 64.3351 26.4474 1.62664 0
657 1 Si 67.699 27.2042 1.61441 0
658 1 Si 204.051 51.5456 1.62568 0
659 1 Si 2.94656 51.7271 1.64121 0
660 1 Si 5.8627 46.6232 1.63208 0
661 1 Si 5.48247 49.7743 1.62575 0
662 1 Si 106.655 56.0602 1.61642 0
663 1 Si 103.505 55.2425 1.63065 0
664 1 Si 102.756 52.0066 1.62703 0
665 1 Si 82.4443 25.6998 1.64503 0
666 1 Si 85.534 24.8906 1.64264 0
667 1 Si 90.8455 25.2241 1.62674 0
668 1 Si 96.8942 24.7667 1.62936 0
669 1 Si 93.8406 26.4413 1.62093 0
670 1 Si 12.903 27.2391 1.62681 0
671 1 Si 9.66574 27.8671 1.63319 0
672 1 Si 18.7765 28.105 1.63644 0
673 1 Si 15.5189 29.288 1.61723 0
674 1 Si 169.705 54.9283 1.62524 0
675 1 Si 175.093 54.647 1.63721 0
676 1 Si 172.618 56.4899 1.62877 0
677 1 Si 37.7952 27.2125 1.61206 0
678 1 Si 30.6183 27.7357 1.62679 0
679 1 Si 36.1524 30.3584 1.63827 0
680 1 Si 32.6436 30.8952 1.64158 0
681 1 Si 43.3186 26.1411 1.61367 0
682 1 Si 40.8748 28.0704 1.61768 0
683 1 Si 179.347 54.116 1.62792 0
684 1 Si 182.454 54.1945 1.6261 0
685 1 Si 192.87 53.3142 1.62454 0
686 1 Si 199.18 54.3961 1.62674 0
687 1 Si 202.459 54.4717 1.62592 0
688 1 Si 76.265 27.6071 1.62821 0
689 1 Si 73.0041 28.2893 1.6272 0
690 1 Si 111.458 57.8985 1.62291 0
691 1 Si 108.225 59.0258 1.62147 0
692 1 Si 81.7594 28.8809 1.6307 0
693 1 Si 78.6178 29.9535 1.63895 0
694 1 Si 117.023 57.3046 1.59762 0
695 1 Si 114.413 59.5568 1.6313 0
696 1 Si 122.144 58.0322 1.6159 0
697 1 Si 119.345 59.4545 1.60305 0
698 1 Si 88.0628 26.8435 1.62571 0
699 1 Si 126.91 57.969 1.61831 0
700 1 Si 124.543 59.9894 1.61977 0
701 1 Si 132.052 57.326 1.61767 0
702 1 Si 129.65 59.2616 1.62777 0
703 1 Si 99.6831 26.5267 1.6354 0
704 1 Si 136.997 57.9011 1.6288 0
705 1 Si 134.323 59.4843 1.61157 0
706 1 Si 141.919 57.4948 1.60336 0
707 1 Si 139.578 59.6033 1.60808 0
708 1 Si 147.613 57.7949 1.62774 0
709 1 Si 144.61 59.0667 1.62911 0
710 1 Si 27.0469 27.6973 1.62668 0
711 1 Si 21.2587 30.3253 1.61943 0
712 1 Si 24.684 30.2395 1.63261 0
713 1 Si 153.974 58.1853 1.59679 0
714 1 Si 149.191 60.7354 1.62347 0
715 1 Si 152.312 60.821 1.64482 0
716 1 Si 165.197 58.3436 1.63177 0
717 1 Si 168.363 57.7848 1.63069 0
718 1 Si 177.69 56.6852 1.63196 0
719 1 Si 184.311 56.9216 1.65637 0
720 1 Si 187.502 56.0894 1.62124 0
721 1 Si 52.4154 30.6392 1.60827 0
722 1 Si 46.8405 30.5414 1.601 0
723 1 Si 49.5331 32.2086 1.61818 0
724 1 Si 58.385 29.0678 1.62079 0
725 1 Si 55.6573 31.4361 1.63016 0
726 1 Si 193.605 56.4514 1.62982 0
727 1 Si 197.017 56.974 1.62966 0
728 1 Si 61.9084 29.0246 1.63241 0
729 1 Si 204.019 57.3935 1.63362 0
730 1 Si 3.01132 57.5078 1.6406 0
731 1 Si 4.17189 54.6061 1.63956 0
732 1 Si 68.5786 30.3824 1.60768 0
733 1 Si 63.248 32.0393 1.63114 0
734 1 Si 66.4449 32.7193 1.61938 0
735 1 Si 71.6966 31.3906 1.61561 0
736 1 Si 87.498 29.958 1.61597 0
737 1 Si 84.3623 30.9063 1.63273 0
738 1 Si 93.0361 29.7386 1.62243 0
739 1 Si 90.2535 31.7394 1.61716 0
740 1 Si 98.7843 29.4957 1.61252 0
741 1 Si 95.9609 30.9618 1.64176 0
742 1 Si 8.44489 30.949 1.63984 0
743 1 Si 159.368 60.0045 1.62677 0
744 1 Si 156.31 60.2199 1.60478 0
745 1 Si 14.4767 32.5633 1.61486 0
746 1 Si 11.0514 33.3412 1.62602 0
747 1 Si 164.313 61.5022 1.62877 0
748 1 Si 161.245 62.6098 1.6248 0
749 1 Si 170.752 59.944 1.63195 0
750 1 Si 173.904 59.553 1.60558 0
751 1 Si 20.0209 33.3951 1.62885 0
752 1 Si 17.0127 34.8708 1.64289 0
753 1 Si 41.1534 31.208 1.61254 0
754 1 Si 38.455 32.9802 1.60941 0
755 1 Si 44.1246 32.2047 1.64649 0
756 1 Si 179.403 59.4801 1.62454 0
757 1 Si 182.752 59.8985 1.63689 0
758 1 Si 190.495 57.8889 1.62653 0
759 1 Si 198.669 59.8627 1.63037 0
760 1 Si 202.068 60.0125 1.62603 0
761 1 Si 78.1852 33.244 1.61952 0
762 1 Si 72.5634 34.7504 1.62921 0
763 1 Si 75.7796 35.5319 1.63288 0
764 1 Si 115.279 63.0601 1.61535 0
765 1 Si 106.671 62.1936 1.63747 0
766 1 Si 108.538 64.947 1.6046 0
767 1 Si 114.269 66.6269 1.63118 0
768 1 Si 111.063 67.0045 1.64178 0
769 1 Si 118.534 62.5611 1.60907 0
770 1 Si 124.426 63.0933 1.63322 0
771 1 Si 121.347 64.1595 1.6253 0
772 1 Si 139.932 62.7417 1.62912 0
773 1 Si 133.099 62.399 1.63498 0
774 1 Si 137.641 65.1669 1.62268 0
775 1 Si 134.311 65.2654 1.63378 0
776 1 Si 143.127 61.9943 1.62585 0
777 1 Si 144.964 64.4785 1.62605 0
778 1 Si 148.092 63.8067 1.59947 0
779 1 Si 154.707 62.8761 1.61704 0
780 1 Si 25.4247 33.4338 1.61449 0
781 1 Si 22.6697 35.1266 1.62093 0
782 1 Si 31.2822 34.5442 1.63259 0
783 1 Si 27.9267 35.4621 1.63617 0
784 1 Si 169.851 62.8853 1.6299 0
785 1 Si 166.751 63.5402 1.62556 0
786 1 Si 176.758 61.3371 1.63595 0
787 1 Si 39.2219 36.4339 1.63455 0
788 1 Si 32.9417 37.6474 1.62091 0
789 1 Si 36.5636 38.6423 1.62792 0
790 1 Si 190.555 61.1995 1.63543 0
791 1 Si 184.503 62.8161 1.66075 0
792 1 Si 187.825 63.0871 1.61857 0
793 1 Si 47.9946 35.0071 1.63791 0
794 1 Si 44.7824 35.2858 1.62358 0
795 1 Si 55.696 34.7978 1.63008 0
796 1 Si 53.1393 37.1462 1.61068 0
797 1 Si 49.8856 37.4754 1.62555 0
798 1 Si 193.405 62.9444 1.61787 0
799 1 Si 196.701 62.5177 1.64876 0
800 1 Si 61.8892 34.9729 1.63277 0
801 1 Si 58.7641 36.0295 1.62579 0
802 1 Si 203.867 62.7377 1.63913 0
803 1 Si 2.70829 63.8046 1.62375 0
804 1 Si 5.87978 59.1826 1.63597 0
805 1 Si 5.88273 62.4648 1.62397 0
806 1 Si 67.4026 35.8421 1.62222 0
807 1 Si 64.4417 37.0365 1.63205 0
808 1 Si 103.215 63.0593 1.63318 0
809 1 Si 101.017 57.3749 1.61709 0
810 1 Si 100.875 60.6456 1.62886 0
811 1 Si 83.9194 34.1124 1.63848 0
812 1 Si 80.8606 35.0877 1.63102 0
813 1 Si 89.5746 35.0535 1.63343 0
814 1 Si 86.4362 36.2201 1.62973 0
815 1 Si 129.959 62.361 1.61701 0
816 1 Si 127.419 64.2081 1.6263 0
817 1 Si 96.7654 33.9721 1.6346 0
818 1 Si 10.1513 36.601 1.63747 0
819 1 Si 7.06211 37.4944 1.61237 0
820 1 Si 16.8734 38.3755 1.61434 0
821 1 Si 11.4945 39.6507 1.62238 0
822 1 Si 14.4531 40.8695 1.63601 0
823 1 Si 156.42 65.5806 1.62861 0
824 1 Si 159.762 65.5988 1.62934 0
825 1 Si 22.6041 38.313 1.62365 0
826 1 Si 19.7367 40.0562 1.62802 0
827 1 Si 42.5991 37.6886 1.63428 0
828 1 Si 177.421 64.5417 1.6228 0
829 1 Si 171.845 65.2838 1.62993 0
830 1 Si 174.804 66.3216 1.62344 0
831 1 Si 179.946 66.6441 1.63106 0
832 1 Si 183.053 65.8176 1.63592 0
833 1 Si 58.4047 39.2139 1.6259 0
834 1 Si 53.0212 40.4843 1.62812 0
835 1 Si 56.0691 41.4305 1.62765 0
836 1 Si 189.151 66.05 1.63213 0
837 1 Si 192.341 66.004 1.61495 0
838 1 Si 107.055 67.7392 1.61394 0
839 1 Si 104.065 68.65 1.62211 0
840 1 Si 101.885 66.3205 1.60525 0
841 1 Si 70.352 37.3994 1.63354 0
842 1 Si 198.521 65.1747 1.61866 0
843 1 Si 201.7 65.0929 1.63038 0
844 1 Si 80.271 38.2317 1.62748 0
845 1 Si 77.0754 38.6048 1.61013 0
846 1 Si 121.614 67.2633 1.62932 0
847 1 Si 118.898 69.0748 1.60183 0
848 1 Si 115.78 70.0011 1.61629 0
849 1 Si 94.9893 36.5977 1.63506 0
850 1 Si 91.8642 37.4256 1.6307 0
851 1 Si 124.916 67.9699 1.63755 0
852 1 Si 121.238 71.1369 1.62268 0
853 1 Si 124.412 70.9961 1.63011 0
854 1 Si 100.128 38.1819 1.61072 0
855 1 Si 97.1255 38.8872 1.62651 0
856 1 Si 143.571 67.3408 1.62137 0
857 1 Si 138.277 68.3355 1.62865 0
858 1 Si 141.194 69.4828 1.63456 0
859 1 Si 148.801 66.9137 1.64908 0
860 1 Si 146.252 68.8623 1.62966 0