ITEM: TIMESTEP
2335
ITEM: NUMBER OF ATOMS
15636
ITEM: BOX BOUNDS pp pp pp
0.0000000000000000e+00 2.0553008307636344e+02
0.0000000000000000e+00 1.7692238439229638e+02
-1.0000000000000000e+02 1.0000000000000000e+02
ITEM: ATOMS id type element x y z v_uncoordination
1 1 Si 201.655 30.5801 1.62871 0
2 1 Si 203.023 27.5191 1.60913 0
3 1 Si 198.291 30.8054 1.62801 0
4 1 Si 200.416 22.7233 1.63796 0
5 1 Si 203.178 24.2015 1.64289 0
6 1 Si 197.79 24.8112 1.6051 0
7 1 Si 196.58 27.9433 1.63465 0
8 1 Si 203.694 33.3466 1.62437 0
9 1 Si 0.636318 27.3535 1.6358 0
10 1 Si 2.39997 29.9037 1.62295 0
11 1 Si 1.55918 32.9873 1.61869 0
12 1 Si 196.611 33.7759 1.61994 0
13 1 Si 202.191 36.3773 1.62639 0
14 1 Si 198.682 36.5417 1.63817 0
15 1 Si 111.572 4.34352 1.60392 0
16 1 Si 114.427 5.63386 1.60063 0
17 1 Si 110.678 1.37418 1.62002 0
18 1 Si 113.196 176.366 1.61166 0
19 1 Si 116.931 3.70734 1.64199 0
20 1 Si 116.198 0.529085 1.64183 0
21 1 Si 110.314 7.18574 1.62071 0
22 1 Si 113.177 8.54561 1.63621 0
23 1 Si 107.755 0.0638289 1.6244 0
24 1 Si 108.637 173.788 1.62977 0
25 1 Si 111.871 173.469 1.62596 0
26 1 Si 122.274 2.93858 1.5917 0
27 1 Si 119.785 5.16452 1.63503 0
28 1 Si 125.512 6.89292 1.63197 0
29 1 Si 123.057 8.8349 1.61214 0
30 1 Si 125.365 3.77956 1.61766 0
31 1 Si 119.961 8.54304 1.60833 0
32 1 Si 123.41 176.798 1.63545 0
33 1 Si 121.3 174.545 1.61003 0
34 1 Si 118.186 174.987 1.60988 0
35 1 Si 128.073 8.70629 1.61473 0
36 1 Si 124.135 11.7493 1.62145 0
37 1 Si 127.2 11.7284 1.61725 0
38 1 Si 127.815 1.68829 1.61576 0
39 1 Si 126.491 175.675 1.61824 0
40 1 Si 132.35 5.24972 1.62669 0
41 1 Si 130.972 2.30438 1.64637 0
42 1 Si 131.152 8.19795 1.6496 0
43 1 Si 137.383 3.25227 1.62302 0
44 1 Si 135.49 5.73485 1.60983 0
45 1 Si 140.505 3.80603 1.61101 0
46 1 Si 140.284 7.06298 1.6298 0
47 1 Si 137.331 8.32446 1.61303 0
48 1 Si 136.179 0.387749 1.62184 0
49 1 Si 133.055 176.78 1.61232 0
50 1 Si 142.345 1.08251 1.64119 0
51 1 Si 138.003 174.762 1.64436 0
52 1 Si 141.145 174.92 1.63433 0
53 1 Si 146.561 4.55297 1.62771 0
54 1 Si 149.717 4.37269 1.62382 0
55 1 Si 145.378 7.51662 1.61564 0
56 1 Si 151.397 7.02155 1.62042 0
57 1 Si 147.214 10.0704 1.62313 0
58 1 Si 150.291 9.97972 1.61852 0
59 1 Si 145.522 1.50878 1.61952 0
60 1 Si 150.684 1.34454 1.6163 0
61 1 Si 148.072 176.387 1.63128 0
62 1 Si 142.631 9.19675 1.63823 0
63 1 Si 155.521 3.95783 1.61829 0
64 1 Si 153.843 1.12278 1.63477 0
65 1 Si 154.543 7.14843 1.60409 0
66 1 Si 163.393 2.74479 1.60841 0
67 1 Si 160.678 4.70478 1.62908 0
68 1 Si 165.026 5.40136 1.61314 0
69 1 Si 160.35 8.19376 1.63803 0
70 1 Si 163.558 8.22827 1.62526 0
71 1 Si 158.376 2.44221 1.62674 0
72 1 Si 158.33 176.025 1.60589 0
73 1 Si 164.984 176.802 1.62408 0
74 1 Si 160.203 173.308 1.63322 0
75 1 Si 163.297 174.133 1.64186 0
76 1 Si 155.219 175.1 1.61035 0
77 1 Si 170.233 2.99953 1.59886 0
78 1 Si 168.129 5.32882 1.63116 0
79 1 Si 170.809 176.763 1.63578 0
80 1 Si 167.959 175.436 1.64226 0
81 1 Si 173.185 3.99887 1.61853 0
82 1 Si 174.155 6.9933 1.63451 0
83 1 Si 168.842 8.39259 1.60996 0
84 1 Si 171.868 9.17287 1.64111 0
85 1 Si 174.894 1.37175 1.62085 0
86 1 Si 173.727 175.283 1.618 0
87 1 Si 177.864 2.34245 1.63665 0
88 1 Si 178.995 5.33566 1.63987 0
89 1 Si 177.202 7.90415 1.62481 0
90 1 Si 179.471 176.571 1.63247 0
91 1 Si 183.614 3.63371 1.61092 0
92 1 Si 182.002 6.23311 1.62252 0
93 1 Si 182.346 0.814722 1.62194 0
94 1 Si 175.542 172.379 1.62135 0
95 1 Si 178.584 173.487 1.62841 0
96 1 Si 186.615 2.91261 1.63926 0
97 1 Si 186.742 7.64254 1.63723 0
98 1 Si 188.836 5.01484 1.6428 0
99 1 Si 183.691 8.89247 1.61208 0
100 1 Si 184.669 175.748 1.63638 0
101 1 Si 187.536 176.898 1.63214 0
102 1 Si 193.72 5.47837 1.64327 0
103 1 Si 191.742 7.97968 1.62125 0
104 1 Si 191.636 3.18798 1.62524 0
105 1 Si 189.021 9.71608 1.64536 0
106 1 Si 196.883 4.90448 1.61958 0
107 1 Si 198.446 7.75962 1.63091 0
108 1 Si 193.5 10.4751 1.61048 0
109 1 Si 196.631 10.4096 1.60966 0
110 1 Si 198.281 1.93028 1.63922 0
111 1 Si 193.208 0.283434 1.63778 0
112 1 Si 196.379 176.17 1.63182 0
113 1 Si 203.057 4.7485 1.6286 0
114 1 Si 201.662 7.79205 1.62417 0
115 1 Si 201.542 1.72226 1.63901 0
116 1 Si 0.773813 4.94867 1.63997 0
117 1 Si 2.54485 7.75347 1.63701 0
118 1 Si 203.184 10.7568 1.63551 0
119 1 Si 0.943763 10.6313 1.64021 0
120 1 Si 2.21386 2.07595 1.62759 0
121 1 Si 0.792238 176.038 1.62101 0
122 1 Si 203.006 175.572 1.63381 0
123 1 Si 5.88548 7.70982 1.62583 0
124 1 Si 7.44294 4.80468 1.63524 0
125 1 Si 5.457 2.18196 1.63228 0
126 1 Si 107.221 7.6877 1.62542 0
127 1 Si 104.911 5.39932 1.62899 0
128 1 Si 106.473 10.8068 1.62994 0
129 1 Si 103.276 10.5739 1.61082 0
130 1 Si 102.414 7.46281 1.62805 0
131 1 Si 105.069 2.05176 1.64463 0
132 1 Si 114.134 11.6205 1.62398 0
133 1 Si 119.59 11.9071 1.6373 0
134 1 Si 116.833 13.5347 1.62709 0
135 1 Si 132.872 10.9104 1.6252 0
136 1 Si 136.062 11.2461 1.63838 0
137 1 Si 142.625 12.4818 1.59495 0
138 1 Si 145.746 12.8118 1.62459 0
139 1 Si 154.815 10.5183 1.61991 0
140 1 Si 158.085 11.0737 1.62378 0
141 1 Si 166.143 10.074 1.62746 0
142 1 Si 178.569 10.8557 1.62584 0
143 1 Si 181.84 11.5913 1.64937 0
144 1 Si 188.522 12.8853 1.6193 0
145 1 Si 191.649 12.9958 1.63036 0
146 1 Si 201.806 13.7755 1.62529 0
147 1 Si 196.303 13.5777 1.63804 0
148 1 Si 198.929 15.1729 1.62271 0
149 1 Si 2.53506 13.4861 1.63419 0
150 1 Si 5.84868 13.3367 1.63801 0
151 1 Si 7.65841 10.5422 1.62268 0
152 1 Si 108.477 13.3375 1.64357 0
153 1 Si 111.755 13.7169 1.61766 0
154 1 Si 122.074 14.071 1.60893 0
155 1 Si 128.741 14.4464 1.63736 0
156 1 Si 131.838 13.932 1.65109 0
157 1 Si 136.851 14.3818 1.59993 0
158 1 Si 142.019 15.7196 1.64039 0
159 1 Si 138.998 16.8059 1.62864 0
160 1 Si 152.08 12.6371 1.62015 0
161 1 Si 147.029 15.6508 1.61562 0
162 1 Si 150.302 15.6618 1.62468 0
163 1 Si 166.928 13.136 1.63359 0
164 1 Si 158.314 14.5073 1.64696 0
165 1 Si 161.384 15.4923 1.61061 0
166 1 Si 164.558 15.2775 1.63098 0
167 1 Si 172.825 12.1426 1.63379 0
168 1 Si 170.107 13.9015 1.63217 0
169 1 Si 176.01 12.8239 1.63604 0
170 1 Si 183.236 14.5983 1.62792 0
171 1 Si 186.404 15.3452 1.62399 0
172 1 Si 0.740503 16.2901 1.63105 0
173 1 Si 203.082 16.7639 1.62837 0
174 1 Si 106.577 15.9276 1.63554 0
175 1 Si 103.464 16.778 1.61867 0
176 1 Si 100.494 12.2335 1.63654 0
177 1 Si 100.53 15.4427 1.63407 0
178 1 Si 113.633 16.3895 1.61509 0
179 1 Si 116.854 16.9461 1.61709 0
180 1 Si 123.644 16.8972 1.61863 0
181 1 Si 126.936 17.0744 1.63581 0
182 1 Si 134.156 16.0872 1.60125 0
183 1 Si 144.615 17.7574 1.6183 0
184 1 Si 156.435 17.4048 1.60454 0
185 1 Si 161.163 18.6345 1.62818 0
186 1 Si 158.39 19.9259 1.60787 0
187 1 Si 165.741 18.2501 1.62005 0
188 1 Si 170.885 16.9375 1.62322 0
189 1 Si 168.708 19.2379 1.62582 0
190 1 Si 176.34 15.9485 1.61859 0
191 1 Si 181.795 17.4734 1.62792 0
192 1 Si 178.726 17.9136 1.62697 0
193 1 Si 193.619 15.3363 1.63683 0
194 1 Si 1.90735 19.2581 1.65039 0
195 1 Si 5.06863 18.7441 1.6195 0
196 1 Si 7.09562 16.2967 1.61294 0
197 1 Si 108.593 18.291 1.62747 0
198 1 Si 111.692 18.7891 1.63417 0
199 1 Si 118.693 20.1257 1.65643 0
200 1 Si 122.145 19.7729 1.61277 0
201 1 Si 134.481 19.3032 1.62694 0
202 1 Si 128.359 19.9613 1.61479 0
203 1 Si 131.649 21.0716 1.62258 0
204 1 Si 137.773 19.9043 1.62362 0
205 1 Si 150.821 18.9908 1.62925 0
206 1 Si 153.993 19.7251 1.63281 0
207 1 Si 163.597 20.5242 1.61215 0
208 1 Si 173.848 17.8719 1.61538 0
209 1 Si 187.014 18.5888 1.63096 0
210 1 Si 182.348 20.6735 1.63135 0
211 1 Si 185.37 21.4312 1.6204 0
212 1 Si 192.65 18.3478 1.60776 0
213 1 Si 189.866 19.9551 1.62727 0
214 1 Si 198.162 18.2833 1.61628 0
215 1 Si 201.087 19.4459 1.62064 0
216 1 Si 107.275 21.0518 1.62283 0
217 1 Si 104.469 22.2754 1.62188 0
218 1 Si 102.522 19.8356 1.62577 0
219 1 Si 112.283 21.8114 1.61863 0
220 1 Si 117.345 23.5453 1.62742 0
221 1 Si 114.188 24.209 1.64163 0
222 1 Si 125.209 21.174 1.61759 0
223 1 Si 145.289 20.9695 1.65055 0
224 1 Si 148.581 21.615 1.63101 0
225 1 Si 154.705 23.0374 1.63472 0
226 1 Si 157.948 23.0762 1.62263 0
227 1 Si 169.423 22.3483 1.61971 0
228 1 Si 174.673 20.9215 1.63618 0
229 1 Si 172.565 23.2795 1.6286 0
230 1 Si 177.791 20.9336 1.62761 0
231 1 Si 180.117 23.0181 1.6375 0
232 1 Si 195.421 19.9358 1.62199 0
233 1 Si 0.153486 22.033 1.61523 0
234 1 Si 109.498 23.1091 1.6134 0
235 1 Si 125.863 24.2533 1.64352 0
236 1 Si 123.384 26.3327 1.58943 0
237 1 Si 117.54 27.0432 1.62998 0
238 1 Si 120.616 28.0428 1.6417 0
239 1 Si 129.021 25.1994 1.62389 0
240 1 Si 132.18 24.3719 1.62687 0
241 1 Si 139.532 22.82 1.6307 0
242 1 Si 142.865 23.2533 1.61593 0
243 1 Si 149.374 24.9293 1.62054 0
244 1 Si 152.68 25.7669 1.6182 0
245 1 Si 163.683 23.6889 1.62731 0
246 1 Si 166.891 24.4103 1.63921 0
247 1 Si 195.096 23.0842 1.60947 0
248 1 Si 189.687 23.2143 1.62662 0
249 1 Si 192.425 24.8777 1.62097 0
250 1 Si 2.01169 24.527 1.63664 0
251 1 Si 5.01343 23.7514 1.63923 0
252 1 Si 6.84399 21.2623 1.62362 0
253 1 Si 128.835 28.3139 1.62737 0
254 1 Si 125.695 28.4685 1.62161 0
255 1 Si 134.865 26.5871 1.63296 0
256 1 Si 138.162 25.8594 1.62062 0
257 1 Si 143.623 26.4881 1.62229 0
258 1 Si 146.924 27.3566 1.63616 0
259 1 Si 160.617 25.0363 1.63996 0
260 1 Si 168.011 27.3899 1.63424 0
261 1 Si 173.761 26.2991 1.63098 0
262 1 Si 171.135 28.1857 1.60814 0
263 1 Si 186.702 24.4144 1.62768 0
264 1 Si 193.232 28.0529 1.62399 0
265 1 Si 111.863 26.4693 1.6449 0
266 1 Si 108.687 26.0604 1.58155 0
267 1 Si 111.887 29.6181 1.61208 0
268 1 Si 115.212 29.6638 1.60294 0
269 1 Si 131.128 30.5668 1.64653 0
270 1 Si 134.345 29.944 1.62387 0
271 1 Si 140.663 28.1205 1.62679 0
272 1 Si 153.735 29.1236 1.63365 0
273 1 Si 147.861 30.6141 1.62004 0
274 1 Si 151.144 31.4707 1.61586 0
275 1 Si 160.085 28.28 1.62267 0
276 1 Si 157.174 30.0749 1.62783 0
277 1 Si 162.816 30.1367 1.61908 0
278 1 Si 166.081 29.9577 1.62738 0
279 1 Si 176.808 27.605 1.63854 0
280 1 Si 171.311 31.3976 1.62455 0
281 1 Si 176.778 30.8566 1.61464 0
282 1 Si 174.205 32.8244 1.61414 0
283 1 Si 179.85 26.2558 1.6526 0
284 1 Si 185.806 27.616 1.62988 0
285 1 Si 191.239 30.8271 1.64047 0
286 1 Si 187.697 30.4564 1.62668 0
287 1 Si 5.32937 28.9166 1.63947 0
288 1 Si 6.79475 26.1916 1.63604 0
289 1 Si 105.616 25.2258 1.64578 0
290 1 Si 109.119 31.5656 1.63054 0
291 1 Si 105.912 30.7252 1.62879 0
292 1 Si 104.013 27.8901 1.62248 0
293 1 Si 124.352 31.2015 1.62504 0
294 1 Si 121.223 31.2147 1.61007 0
295 1 Si 129.586 33.3531 1.62327 0
296 1 Si 126.443 33.4495 1.61449 0
297 1 Si 139.973 31.457 1.6221 0
298 1 Si 136.648 32.4712 1.6316 0
299 1 Si 142.448 33.821 1.62584 0
300 1 Si 145.86 33.3431 1.62694 0
301 1 Si 158.367 33.2414 1.62198 0
302 1 Si 161.677 33.1344 1.61372 0
303 1 Si 168.242 32.3842 1.62255 0
304 1 Si 182.543 28.1697 1.61327 0
305 1 Si 193.081 33.8072 1.62833 0
306 1 Si 114.756 32.939 1.62502 0
307 1 Si 109.299 34.9469 1.6207 0
308 1 Si 112.442 35.2904 1.64353 0
309 1 Si 120.146 34.2072 1.63674 0
310 1 Si 117.108 35.0096 1.62045 0
311 1 Si 135.708 35.8806 1.62121 0
312 1 Si 130.093 36.5003 1.6326 0
313 1 Si 132.898 37.9479 1.63152 0
314 1 Si 10.8015 4.44801 1.6277 0
315 1 Si 12.5946 7.3806 1.63281 0
316 1 Si 11.037 10.4318 1.63247 0
317 1 Si 11.925 1.1788 1.63687 0
318 1 Si 6.31497 176.019 1.6287 0
319 1 Si 9.56762 175.605 1.61388 0
320 1 Si 18.5425 5.45713 1.6346 0
321 1 Si 15.9675 7.57113 1.61898 0
322 1 Si 18.0775 2.1183 1.63204 0
323 1 Si 15.2422 0.188958 1.63343 0
324 1 Si 151.142 34.8469 1.62854 0
325 1 Si 157.024 36.3236 1.64199 0
326 1 Si 153.707 37.0295 1.65202 0
327 1 Si 21.5019 7.17977 1.61443 0
328 1 Si 17.5667 10.4362 1.61747 0
329 1 Si 20.8008 10.3971 1.62269 0
330 1 Si 20.9441 0.480175 1.62228 0
331 1 Si 18.8983 172.164 1.63165 0
332 1 Si 21.2973 174.19 1.62512 0
333 1 Si 15.8958 173.766 1.62132 0
334 1 Si 26.1429 3.67864 1.63839 0
335 1 Si 24.8446 6.69443 1.63349 0
336 1 Si 24.0398 1.27374 1.63224 0
337 1 Si 163.914 35.4801 1.62829 0
338 1 Si 167.207 35.3951 1.63796 0
339 1 Si 29.1023 2.17198 1.62184 0
340 1 Si 32.4937 6.37048 1.61849 0
341 1 Si 32.2091 3.04473 1.62715 0
342 1 Si 27.0484 9.2156 1.62903 0
343 1 Si 30.3361 8.91439 1.64256 0
344 1 Si 25.876 175.62 1.61428 0
345 1 Si 28.9776 175.847 1.63081 0
346 1 Si 37.8549 4.84377 1.61909 0
347 1 Si 35.6563 7.10408 1.62292 0
348 1 Si 37.7248 1.63347 1.61455 0
349 1 Si 34.5664 0.533585 1.63508 0
350 1 Si 40.8597 5.84643 1.61923 0
351 1 Si 41.9471 8.79458 1.64018 0
352 1 Si 36.9085 10.0691 1.62749 0
353 1 Si 39.9193 11.1839 1.62707 0
354 1 Si 43.0125 3.55966 1.58888 0
355 1 Si 41.0118 0.886961 1.63424 0
356 1 Si 182.28 31.3825 1.6155 0
357 1 Si 179.367 32.717 1.62904 0
358 1 Si 45.4753 5.80285 1.63476 0
359 1 Si 45.0987 9.12613 1.6087 0
360 1 Si 49.2009 1.29577 1.608 0
361 1 Si 48.3714 4.50311 1.6376 0
362 1 Si 52.3596 1.60086 1.62863 0
363 1 Si 52.8441 4.71942 1.61998 0
364 1 Si 50.5848 6.87272 1.59038 0
365 1 Si 48.5253 174.997 1.64546 0
366 1 Si 45.4616 173.851 1.61406 0
367 1 Si 42.1966 174.733 1.63174 0
368 1 Si 54.7566 176.428 1.61734 0
369 1 Si 57.9931 4.00356 1.63687 0
370 1 Si 55.639 6.0912 1.61737 0
371 1 Si 57.5742 0.892089 1.63277 0
372 1 Si 53.7236 171.06 1.63352 0
373 1 Si 55.8552 173.38 1.63957 0
374 1 Si 50.7761 172.518 1.59195 0
375 1 Si 185.234 32.7715 1.61782 0
376 1 Si 60.9165 5.19178 1.63211 0
377 1 Si 60.9599 8.45464 1.62944 0
378 1 Si 55.3736 9.29427 1.62421 0
379 1 Si 58.4049 10.6031 1.63667 0
380 1 Si 63.2474 2.97731 1.64212 0
381 1 Si 62.8773 176.695 1.64139 0
382 1 Si 59.9115 175.7 1.62286 0
383 1 Si 66.1926 4.13157 1.63814 0
384 1 Si 66.3717 7.32684 1.62736 0
385 1 Si 63.9786 9.51108 1.63205 0
386 1 Si 68.6792 2.10924 1.63755 0
387 1 Si 68.1249 175.846 1.63236 0
388 1 Si 65.1912 174.479 1.62508 0
389 1 Si 4.60071 34.4957 1.64356 0
390 1 Si 7.92606 30.4978 1.63578 0
391 1 Si 7.84574 33.5396 1.63925 0
392 1 Si 71.6183 3.46517 1.63753 0
393 1 Si 71.951 6.63723 1.61246 0
394 1 Si 69.3082 8.4129 1.62809 0
395 1 Si 104.13 33.4549 1.62287 0
396 1 Si 100.951 26.4207 1.62474 0
397 1 Si 99.8412 29.3439 1.62117 0
398 1 Si 101.253 32.1727 1.63762 0
399 1 Si 107.432 37.9078 1.64127 0
400 1 Si 104.353 36.7989 1.63249 0
401 1 Si 74.0933 1.52235 1.62371 0
402 1 Si 78.8186 5.13617 1.62218 0
403 1 Si 77.2045 2.26686 1.62583 0
404 1 Si 74.2857 8.81693 1.63465 0
405 1 Si 77.381 8.06516 1.62929 0
406 1 Si 70.6205 173.852 1.63763 0
407 1 Si 73.4244 175.311 1.63544 0
408 1 Si 84.7379 3.63311 1.6529 0
409 1 Si 88.1072 4.85813 1.62029 0
410 1 Si 82.0892 5.73129 1.62626 0
411 1 Si 89.4343 7.95905 1.61875 0
412 1 Si 82.401 8.96712 1.61792 0
413 1 Si 87.9785 10.9165 1.62521 0
414 1 Si 84.6958 11.2072 1.63098 0
415 1 Si 83.6835 0.372031 1.60631 0
416 1 Si 91.1263 3.37311 1.62589 0
417 1 Si 91.2412 0.154517 1.636 0
418 1 Si 85.6272 174.705 1.61433 0
419 1 Si 88.8077 174.897 1.63439 0
420 1 Si 78.0414 176.064 1.63544 0
421 1 Si 81.0617 175.268 1.62959 0
422 1 Si 93.9956 5.14781 1.61514 0
423 1 Si 92.7611 8.20084 1.61521 0
424 1 Si 122.063 36.7839 1.63734 0
425 1 Si 125.147 36.2861 1.63011 0
426 1 Si 97.3753 4.62258 1.64095 0
427 1 Si 99.1744 7.36352 1.61812 0
428 1 Si 94.5536 11.0523 1.64328 0
429 1 Si 97.8238 10.3583 1.61626 0
430 1 Si 99.1404 1.773 1.61807 0
431 1 Si 94.1632 175.729 1.62697 0
432 1 Si 97.298 176.072 1.62307 0
433 1 Si 102.224 0.45932 1.63009 0
434 1 Si 141.308 37.0208 1.63236 0
435 1 Si 138.139 38.0997 1.6317 0
436 1 Si 12.9653 13.2122 1.6118 0
437 1 Si 16.2187 13.3231 1.62734 0
438 1 Si 147.977 35.92 1.62196 0
439 1 Si 22.8255 13.0436 1.62878 0
440 1 Si 25.9314 12.3046 1.62121 0
441 1 Si 162.468 38.2714 1.62414 0
442 1 Si 159.343 38.7175 1.59667 0
443 1 Si 31.7124 11.829 1.62182 0
444 1 Si 34.8113 12.3722 1.64331 0
445 1 Si 175.219 35.948 1.62648 0
446 1 Si 169.361 37.8743 1.63446 0
447 1 Si 172.688 38.129 1.63385 0
448 1 Si 178.617 35.872 1.60801 0
449 1 Si 52.0481 9.76905 1.61656 0
450 1 Si 46.207 12.2975 1.63098 0
451 1 Si 49.5803 11.9999 1.627 0
452 1 Si 184.976 36.079 1.63616 0
453 1 Si 191.456 36.846 1.64624 0
454 1 Si 188.065 37.6625 1.61976 0
455 1 Si 204.335 39.0546 1.65029 0
456 1 Si 2.14089 39.6036 1.62862 0
457 1 Si 4.73038 37.6702 1.63693 0
458 1 Si 69.7862 11.5191 1.62875 0
459 1 Si 72.9483 11.7283 1.61663 0
460 1 Si 79.5333 10.4052 1.60543 0
461 1 Si 116.046 38.0048 1.63118 0
462 1 Si 112.926 38.488 1.62104 0
463 1 Si 121.15 39.8363 1.62604 0
464 1 Si 118.013 40.4147 1.62836 0
465 1 Si 89.6677 13.8015 1.61612 0
466 1 Si 93.0869 14.1896 1.64044 0
467 1 Si 127.464 38.3542 1.62057 0
468 1 Si 146.715 38.9792 1.61592 0
469 1 Si 143.509 39.4039 1.62293 0
470 1 Si 12.8442 16.5057 1.64144 0
471 1 Si 9.96091 17.7986 1.63778 0
472 1 Si 153.018 40.2607 1.62731 0
473 1 Si 147.654 42.1305 1.62829 0
474 1 Si 150.798 42.6967 1.64694 0
475 1 Si 17.646 16.2791 1.59728 0
476 1 Si 23.0267 16.4143 1.6293 0
477 1 Si 20.3313 18.1735 1.63009 0
478 1 Si 137.176 41.3345 1.61133 0
479 1 Si 131.817 41.253 1.63334 0
480 1 Si 134.346 43.1574 1.63454 0
481 1 Si 27.458 15.1961 1.61713 0
482 1 Si 30.5762 14.8275 1.62276 0
483 1 Si 164.452 40.6679 1.6124 0
484 1 Si 167.565 40.5382 1.60918 0
485 1 Si 40.9201 14.2756 1.63831 0
486 1 Si 35.6554 15.4035 1.62181 0
487 1 Si 38.6076 16.5357 1.63634 0
488 1 Si 181.677 37.3605 1.63269 0
489 1 Si 44.069 15.1269 1.64758 0
490 1 Si 193.614 39.4025 1.61093 0
491 1 Si 196.888 39.4021 1.61496 0
492 1 Si 64.5161 12.6919 1.63023 0
493 1 Si 59.044 13.8678 1.61792 0
494 1 Si 62.1709 14.8733 1.64294 0
495 1 Si 181.347 40.5845 1.62786 0
496 1 Si 187.384 40.8825 1.61969 0
497 1 Si 184.331 41.8429 1.6145 0
498 1 Si 67.551 13.7746 1.61718 0
499 1 Si 108.05 41.4847 1.62455 0
500 1 Si 111.357 41.36 1.63109 0
501 1 Si 82.8097 13.8835 1.62389 0
502 1 Si 79.5864 13.5785 1.63421 0
503 1 Si 126.521 41.3895 1.64018 0
504 1 Si 123.382 42.1766 1.63563 0
505 1 Si 87.4868 16.3186 1.64276 0
506 1 Si 84.0973 16.7757 1.63446 0
507 1 Si 94.8058 17.3545 1.63237 0
508 1 Si 98.0554 17.5913 1.61011 0
509 1 Si 142.756 42.5533 1.62055 0
510 1 Si 139.655 43.4302 1.63145 0
511 1 Si 15.414 18.5834 1.60014 0
512 1 Si 160.53 41.7501 1.65164 0
513 1 Si 155.342 42.3322 1.58853 0
514 1 Si 158.14 43.6087 1.64208 0
515 1 Si 25.9402 18.0875 1.61333 0
516 1 Si 163.21 43.5122 1.59225 0
517 1 Si 32.904 16.9908 1.62284 0
518 1 Si 173.192 41.2894 1.60502 0
519 1 Si 167.875 43.7468 1.63135 0
520 1 Si 171.022 43.5896 1.60819 0
521 1 Si 50.9363 14.7861 1.64133 0
522 1 Si 49.1397 17.3529 1.59143 0
523 1 Si 44.1759 18.6443 1.63634 0
524 1 Si 47.1833 19.8299 1.63686 0
525 1 Si 53.787 16.0706 1.60814 0
526 1 Si 51.9711 18.5572 1.58425 0
527 1 Si 178.906 42.7814 1.62169 0
528 1 Si 175.689 43.2595 1.63094 0
529 1 Si 56.9001 16.326 1.63957 0
530 1 Si 192.705 42.5037 1.63226 0
531 1 Si 189.618 43.2429 1.63326 0
532 1 Si 197.477 42.6816 1.63571 0
533 1 Si 203.208 42.0636 1.63097 0
534 1 Si 200.492 43.7864 1.6383 0
535 1 Si 73.8528 14.7301 1.63216 0
536 1 Si 68.4516 16.9019 1.6228 0
537 1 Si 71.6708 17.127 1.63561 0
538 1 Si 76.954 15.4427 1.63758 0
539 1 Si 106.333 45.0394 1.62614 0
540 1 Si 103.003 45.0684 1.61915 0
541 1 Si 101.013 42.1664 1.62837 0
542 1 Si 101.71 38.9135 1.63975 0
543 1 Si 113.387 43.8902 1.63567 0
544 1 Si 116.588 43.2521 1.62725 0
545 1 Si 88.9122 19.1487 1.61277 0
546 1 Si 94.2393 20.8264 1.62525 0
547 1 Si 91.1646 21.4475 1.64808 0
548 1 Si 129.065 43.3052 1.63294 0
549 1 Si 145.354 44.5203 1.6178 0
550 1 Si 9.97612 20.9812 1.61948 0
551 1 Si 151.62 45.8589 1.62332 0
552 1 Si 154.634 45.3513 1.59728 0
553 1 Si 16.7326 21.6721 1.63149 0
554 1 Si 20.0436 21.5247 1.62407 0
555 1 Si 151.12 49.0411 1.63918 0
556 1 Si 147.827 49.9376 1.62631 0
557 1 Si 145.25 47.8963 1.61864 0
558 1 Si 154.315 50.4882 1.64131 0
559 1 Si 157.462 46.5925 1.60494 0
560 1 Si 157.789 49.6612 1.64965 0
561 1 Si 146.333 52.9245 1.61844 0
562 1 Si 154.157 53.7118 1.62486 0
563 1 Si 151.272 55.5401 1.60331 0
564 1 Si 147.966 55.6819 1.62987 0
565 1 Si 33.0882 20.1438 1.63232 0
566 1 Si 27.3587 21.2744 1.65954 0
567 1 Si 30.6228 22.2004 1.61797 0
568 1 Si 165.356 45.8791 1.63242 0
569 1 Si 38.8276 19.751 1.62406 0
570 1 Si 36.0587 21.4051 1.61679 0
571 1 Si 41.7956 21.1423 1.61468 0
572 1 Si 180.672 45.438 1.61798 0
573 1 Si 183.787 44.9475 1.61566 0
574 1 Si 194.96 44.818 1.61239 0
575 1 Si 63.1205 17.9926 1.62817 0
576 1 Si 57.4371 19.5295 1.63117 0
577 1 Si 60.6045 19.9821 1.63729 0
578 1 Si 4.14687 42.1925 1.63527 0
579 1 Si 7.70975 38.935 1.61344 0
580 1 Si 7.32955 42.0888 1.59731 0
581 1 Si 205.469 44.2852 1.62484 0
582 1 Si 3.04024 45.1143 1.62384 0
583 1 Si 66.2157 19.2945 1.62822 0
584 1 Si 112.619 47.0136 1.61219 0
585 1 Si 107.064 48.7151 1.63708 0
586 1 Si 110.214 49.1505 1.64013 0
587 1 Si 122.098 45.1176 1.61332 0
588 1 Si 118.942 45.3437 1.62029 0
589 1 Si 81.656 19.2033 1.62326 0
590 1 Si 76.3625 18.5496 1.6177 0
591 1 Si 78.6102 20.6946 1.62173 0
592 1 Si 83.5818 21.6149 1.61584 0
593 1 Si 86.6198 21.1787 1.60816 0
594 1 Si 138.729 46.4656 1.60535 0
595 1 Si 133.433 46.3877 1.63993 0
596 1 Si 136.022 48.0724 1.60348 0
597 1 Si 99.4473 20.5264 1.61871 0
598 1 Si 128.32 46.5689 1.60158 0
599 1 Si 122.895 48.2656 1.63923 0
600 1 Si 126.012 48.9187 1.63236 0
601 1 Si 139.741 49.4434 1.63028 0
602 1 Si 142.796 50.1542 1.62719 0
603 1 Si 11.8923 23.5162 1.63459 0
604 1 Si 15.0052 24.5167 1.62677 0
605 1 Si 22.2083 24.2301 1.63502 0
606 1 Si 25.5862 24.0834 1.61906 0
607 1 Si 173.458 45.514 1.61967 0
608 1 Si 52.0083 21.6593 1.59538 0
609 1 Si 48.9467 22.63 1.6382 0
610 1 Si 173.304 48.6251 1.63678 0
611 1 Si 179.655 48.3986 1.63494 0
612 1 Si 176.511 49.0757 1.57954 0
613 1 Si 55.175 21.8985 1.64648 0
614 1 Si 188.958 46.3818 1.61835 0
615 1 Si 185.934 47.2224 1.62791 0
616 1 Si 194.18 48.0767 1.6508 0
617 1 Si 190.929 48.8882 1.59915 0
618 1 Si 73.391 19.7602 1.63049 0
619 1 Si 204.446 47.1848 1.60787 0
620 1 Si 201.314 46.8755 1.61754 0
621 1 Si 1.21728 49.4178 1.62063 0
622 1 Si 4.33497 48.1276 1.63989 0
623 1 Si 98.844 23.7543 1.63907 0
624 1 Si 95.5675 24.0782 1.63677 0
625 1 Si 118.152 48.3443 1.6228 0
626 1 Si 115.118 48.965 1.61702 0
627 1 Si 9.87127 25.8712 1.64362 0
628 1 Si 130.906 48.4751 1.60361 0
629 1 Si 35.6086 24.61 1.62398 0
630 1 Si 32.2872 25.103 1.62103 0
631 1 Si 41.6361 24.6159 1.63656 0
632 1 Si 38.4561 26.3567 1.63573 0
633 1 Si 48.2374 25.8605 1.63587 0
634 1 Si 44.644 26.4116 1.62669 0
635 1 Si 164.642 49.1641 1.63181 0
636 1 Si 161.237 50.35 1.61373 0
637 1 Si 170.846 50.7858 1.61665 0
638 1 Si 167.423 51.2543 1.62044 0
639 1 Si 66.9506 22.5937 1.62411 0
640 1 Si 61.5723 22.9257 1.61736 0
641 1 Si 64.3297 24.4226 1.61523 0
642 1 Si 72.8251 22.94 1.637 0
643 1 Si 69.6262 24.5882 1.62057 0
644 1 Si 185.174 50.3171 1.60943 0
645 1 Si 181.848 50.8112 1.62993 0
646 1 Si 76.2375 23.1498 1.63147 0
647 1 Si 83.0761 24.6414 1.6453 0
648 1 Si 77.5801 26.0244 1.63244 0
649 1 Si 80.689 26.5268 1.61922 0
650 1 Si 199.809 49.5686 1.60973 0
651 1 Si 196.695 50.1669 1.59123 0
652 1 Si 87.7953 23.992 1.63856 0
653 1 Si 90.7752 24.6863 1.58853 0
654 1 Si 101.839 48.3043 1.62652 0
655 1 Si 97.5901 42.1458 1.62857 0
656 1 Si 96.7471 45.1525 1.63647 0
657 1 Si 98.7118 47.6858 1.62813 0
658 1 Si 105.907 52.2388 1.63103 0
659 1 Si 102.667 51.6798 1.63768 0
660 1 Si 120.487 50.4652 1.60494 0
661 1 Si 137.008 51.0705 1.62409 0
662 1 Si 15.6968 27.9182 1.64562 0
663 1 Si 21.5172 27.5157 1.61532 0
664 1 Si 18.6924 29.4277 1.63959 0
665 1 Si 27.1443 27.0768 1.62798 0
666 1 Si 30.5137 27.9083 1.64223 0
667 1 Si 143.062 53.4339 1.60937 0
668 1 Si 160.606 53.5743 1.6364 0
669 1 Si 157.388 54.7384 1.63075 0
670 1 Si 56.2266 24.8256 1.57447 0
671 1 Si 51.3717 28.0883 1.62808 0
672 1 Si 56.945 27.8574 1.65858 0
673 1 Si 54.6597 29.9674 1.63134 0
674 1 Si 59.302 24.9495 1.58939 0
675 1 Si 176.44 52.2278 1.59734 0
676 1 Si 173.297 52.9888 1.61826 0
677 1 Si 188.432 51.1163 1.63891 0
678 1 Si 205.011 52.2775 1.62851 0
679 1 Si 201.551 52.2525 1.60327 0
680 1 Si 114.311 51.9532 1.63382 0
681 1 Si 111.206 52.1934 1.61753 0
682 1 Si 85.7139 26.199 1.60304 0
683 1 Si 89.826 27.778 1.65502 0
684 1 Si 94.4809 27.4082 1.63503 0
685 1 Si 92.0594 29.953 1.62375 0
686 1 Si 119.473 53.5784 1.65769 0
687 1 Si 116.235 54.4252 1.62078 0
688 1 Si 130.172 51.6695 1.63419 0
689 1 Si 126.916 52.0586 1.61885 0
690 1 Si 10.5227 28.8402 1.63679 0
691 1 Si 13.2556 30.2364 1.61852 0
692 1 Si 135.638 54.0132 1.62928 0
693 1 Si 132.3 54.1437 1.6408 0
694 1 Si 24.4788 28.9995 1.61763 0
695 1 Si 37.7538 29.7547 1.60455 0
696 1 Si 32.1254 31.019 1.61958 0
697 1 Si 35.2961 32.2788 1.61594 0
698 1 Si 166.641 54.52 1.61883 0
699 1 Si 163.336 55.5023 1.62327 0
700 1 Si 43.5762 29.5382 1.60948 0
701 1 Si 40.7227 31.0316 1.60663 0
702 1 Si 44.9204 32.4266 1.6415 0
703 1 Si 50.459 31.049 1.61348 0
704 1 Si 47.945 32.8105 1.62716 0
705 1 Si 179.566 53.1598 1.63278 0
706 1 Si 172.875 56.1762 1.62378 0
707 1 Si 169.277 56.7083 1.6304 0
708 1 Si 63.2245 27.4348 1.64704 0
709 1 Si 60.097 27.9295 1.59296 0
710 1 Si 189.305 54.2119 1.63213 0
711 1 Si 198.291 52.9679 1.63428 0
712 1 Si 192.785 55.0241 1.6008 0
713 1 Si 196.382 55.5527 1.63013 0
714 1 Si 68.1623 27.92 1.62848 0
715 1 Si 65.1338 29.9339 1.62898 0
716 1 Si 76.4015 28.9532 1.6305 0
717 1 Si 70.275 30.3019 1.64598 0
718 1 Si 73.4855 30.1579 1.60553 0
719 1 Si 179.827 56.3561 1.63301 0
720 1 Si 186.458 56.134 1.60025 0
721 1 Si 183.256 57.3828 1.63076 0
722 1 Si 81.7367 29.5184 1.62776 0
723 1 Si 78.9554 30.9208 1.62709 0
724 1 Si 1.56367 54.8799 1.62858 0
725 1 Si 5.11402 54.8201 1.61878 0
726 1 Si 7.74577 49.2285 1.6453 0
727 1 Si 8.06234 52.7583 1.63385 0
728 1 Si 86.9083 29.0189 1.60232 0
729 1 Si 84.5493 31.0799 1.65241 0
730 1 Si 110.484 55.2704 1.62018 0
731 1 Si 107.224 55.8748 1.62806 0
732 1 Si 125.237 54.902 1.64572 0
733 1 Si 121.96 55.6625 1.63399 0
734 1 Si 96.7007 29.6375 1.635 0
735 1 Si 141.12 56.2932 1.62955 0
736 1 Si 137.663 56.6945 1.62106 0
737 1 Si 18.7155 32.8783 1.64472 0
738 1 Si 11.2145 32.9536 1.64711 0
739 1 Si 16.2265 35.255 1.63584 0
740 1 Si 12.8986 35.6256 1.62671 0
741 1 Si 24.4412 32.2515 1.64336 0
742 1 Si 21.7705 34.1619 1.6458 0
743 1 Si 156.904 57.9042 1.61477 0
744 1 Si 151.244 58.7789 1.60971 0
745 1 Si 154.228 59.6773 1.63719 0
746 1 Si 27.1857 33.8773 1.60446 0
747 1 Si 30.3354 33.6812 1.62347 0
748 1 Si 162.34 58.7025 1.6264 0
749 1 Si 159.314 60.0136 1.62668 0
750 1 Si 176.34 57.4348 1.63368 0
751 1 Si 191.664 57.9423 1.63481 0
752 1 Si 188.582 58.4857 1.61508 0
753 1 Si 198.819 58.095 1.61201 0
754 1 Si 205.408 57.8336 1.6149 0
755 1 Si 202.155 59.2659 1.64191 0
756 1 Si 113.592 56.4792 1.63571 0
757 1 Si 90.9917 33.3215 1.63893 0
758 1 Si 96.1903 32.7048 1.62217 0
759 1 Si 93.8611 34.7654 1.62126 0
760 1 Si 130.732 56.9682 1.63056 0
761 1 Si 127.476 57.2481 1.61057 0
762 1 Si 114.231 59.6417 1.6358 0
763 1 Si 120.809 58.7097 1.62384 0
764 1 Si 117.652 59.885 1.62038 0
765 1 Si 146.333 58.6369 1.63567 0
766 1 Si 142.965 59.1456 1.62295 0
767 1 Si 135.908 59.6664 1.63403 0
768 1 Si 132.417 59.741 1.62431 0
769 1 Si 27.5871 37.0183 1.61452 0
770 1 Si 30.7534 36.8698 1.61679 0
771 1 Si 148.743 60.8836 1.61838 0
772 1 Si 40.5873 34.2128 1.60141 0
773 1 Si 35.5935 35.8544 1.62643 0
774 1 Si 38.6764 36.807 1.63155 0
775 1 Si 167.787 59.6957 1.63592 0
776 1 Si 164.609 60.9611 1.63983 0
777 1 Si 43.5374 35.3032 1.59559 0
778 1 Si 51.8993 33.7953 1.60445 0
779 1 Si 49.32 35.5944 1.60155 0
780 1 Si 176.328 60.6882 1.63538 0
781 1 Si 179.297 62.3937 1.60655 0
782 1 Si 184.213 60.5429 1.6156 0
783 1 Si 182.639 63.3055 1.64479 0
784 1 Si 56.8279 32.7835 1.60493 0
785 1 Si 54.6629 35.1395 1.60827 0
786 1 Si 196.738 60.5452 1.61626 0
787 1 Si 193.62 60.3902 1.63304 0
788 1 Si 63.1589 32.9648 1.61786 0
789 1 Si 59.9477 34.1679 1.63818 0
790 1 Si 69.074 33.3034 1.58771 0
791 1 Si 64.5294 35.9757 1.62335 0
792 1 Si 67.686 36.226 1.63994 0
793 1 Si 2.68576 59.5756 1.61897 0
794 1 Si 5.60754 58.0715 1.62766 0
795 1 Si 106.182 59.5966 1.64325 0
796 1 Si 102.843 60.3429 1.62947 0
797 1 Si 100.54 54.3495 1.62642 0
798 1 Si 100.649 57.7707 1.61588 0
799 1 Si 111.663 61.9734 1.604 0
800 1 Si 108.212 62.5555 1.62575 0
801 1 Si 74.2639 33.1792 1.60202 0
802 1 Si 71.7469 34.8841 1.62179 0
803 1 Si 202.27 62.6634 1.61618 0
804 1 Si 197.06 63.7318 1.62776 0
805 1 Si 199.904 65.0189 1.62798 0
806 1 Si 79.5396 34.0578 1.64381 0
807 1 Si 76.6461 35.1684 1.61825 0
808 1 Si 85.105 34.2433 1.60678 0
809 1 Si 82.2433 35.8182 1.61627 0
810 1 Si 88.2163 35.4733 1.62772 0
811 1 Si 126.577 60.3534 1.60853 0
812 1 Si 123.287 60.9175 1.63353 0
813 1 Si 98.9351 34.2222 1.62914 0
814 1 Si 141.338 62.1792 1.6295 0
815 1 Si 137.858 62.459 1.6239 0
816 1 Si 16.9443 38.4023 1.61965 0
817 1 Si 10.8338 38.2023 1.61966 0
818 1 Si 12.0467 41.1846 1.61619 0
819 1 Si 15.1827 41.1055 1.62197 0
820 1 Si 22.2553 37.4153 1.62312 0
821 1 Si 19.8736 39.5506 1.61927 0
822 1 Si 157.718 62.8991 1.59859 0
823 1 Si 154.504 62.8166 1.59683 0
824 1 Si 25.0972 38.9547 1.61935 0
825 1 Si 173.279 62.0729 1.61155 0
826 1 Si 170.027 61.9503 1.64621 0
827 1 Si 163.082 64.035 1.62523 0
828 1 Si 157.667 66.1568 1.62191 0
829 1 Si 160.849 66.7151 1.64033 0
830 1 Si 178.44 65.3745 1.62219 0
831 1 Si 173.101 65.2359 1.62526 0
832 1 Si 175.703 66.8265 1.64004 0
833 1 Si 187.332 61.3272 1.62891 0
834 1 Si 192.359 63.3023 1.63104 0
835 1 Si 189.26 63.8366 1.61787 0
836 1 Si 205.128 64.2255 1.62247 0
837 1 Si 2.52599 62.7851 1.62936 0
838 1 Si 118.41 62.9516 1.6162 0
839 1 Si 113.041 64.9139 1.61743 0
840 1 Si 116.299 65.3121 1.63196 0
841 1 Si 33.5391 38.5924 1.61738 0
842 1 Si 129.64 61.7007 1.62753 0
843 1 Si 43.4584 38.4923 1.64021 0
844 1 Si 40.4035 39.6109 1.62019 0
845 1 Si 48.9906 38.7283 1.63078 0
846 1 Si 46.1384 40.235 1.61831 0
847 1 Si 121.555 63.6023 1.61794 0
848 1 Si 143.078 65.0937 1.61593 0
849 1 Si 149.167 64.2779 1.63487 0
850 1 Si 146.32 66.2075 1.63425 0
851 1 Si 54.5148 38.3637 1.62766 0
852 1 Si 51.8515 40.2228 1.63124 0
853 1 Si 168.362 64.6726 1.6032 0
854 1 Si 165.503 65.9548 1.62473 0
855 1 Si 59.8977 37.5178 1.61805 0
856 1 Si 57.4349 39.6719 1.64381 0
857 1 Si 62.8723 38.7788 1.60554 0
858 1 Si 180.437 67.7138 1.62978 0
859 1 Si 184.921 65.9913 1.64139 0