LAMMPS data file via write_data, version 23 Jun 2022, timestep = 7627

15576 atoms
2 atom types

4.865180365218115 201.16945058453697 xlo xhi
4.98798107800708 170.859135792841 ylo yhi
-100 100 zlo zhi

Masses

1 28.085
2 15.999

Atoms # full

6626 1 1 0 8.737549160889932 5.4854531037533025 -1.6457825621160098 0 0 0
9315 1 2 0 7.97717512703969 6.890569137527477 -2.1166397418756855 0 0 0
6645 1 1 0 11.583827140497649 6.604815214420348 -1.6194959050964584 0 0 0
9320 1 2 0 10.171707579446876 6.039411106021638 -2.177060284694444 0 0 0
9350 1 2 0 12.555739412038497 5.397879674835145 -2.1279697293448083 0 0 0
6841 1 1 0 16.092992541624326 5.4711754099935375 -1.6167179898203057 0 0 0
9645 1 2 0 15.850924814406312 7.017982620664045 -2.1136106544940065 0 0 0
6850 1 1 0 21.12986600012339 5.406524877307097 -1.6297736075319174 0 0 0
9660 1 2 0 20.793068713602604 6.951303433220064 -2.084387944233971 0 0 0
6856 1 1 0 26.298243931130887 5.919982070534781 -1.6153471862945583 0 0 0
9673 1 2 0 27.814427957485208 5.606840040530158 -2.107773075223285 0 0 0
6869 1 1 0 29.357058132396038 5.444965926563738 -1.6321653702607353 0 0 0
9691 1 2 0 30.414997796606176 6.574617208139048 -2.161709038711736 0 0 0
9692 1 2 0 33.050983098383156 7.378551490260189 -2.168051061192906 0 0 0
6871 1 1 0 34.543399173579935 7.0378383337826715 -1.6119261853568598 0 0 0
9697 1 2 0 34.77263993578985 5.499429972128825 -2.087983098290427 0 0 0
6883 1 1 0 40.244523314389454 5.744106167922394 -1.5962993463914292 0 0 0
9707 1 2 0 40.02011383733999 7.289260020000283 -2.117519484786032 0 0 0
6886 1 1 0 46.40824317212142 6.770046922705259 -1.5956969361518971 0 0 0
9722 1 2 0 46.093211677663255 5.283506479438179 -2.1460609789540195 0 0 0
9723 1 2 0 47.98698123557092 6.929069388935396 -1.889974197172405 0 0 0
6895 1 1 0 49.44051578059986 6.2795093194712654 -1.6076540283079208 0 0 0
9729 1 2 0 50.52163444436592 7.336312315224476 -2.173376602744807 0 0 0
9731 1 2 0 54.77237891787998 6.022010261978949 -2.118438414654695 0 0 0
6901 1 1 0 60.153558175050755 6.182610836905319 -1.613457577886404 0 0 0
9749 1 2 0 61.70305598101455 5.788506141243069 -1.9568078949933052 0 0 0
6911 1 1 0 63.29837446967276 5.92470101015937 -1.6064038275134158 0 0 0
9767 1 2 0 69.4066797696836 6.1418632534554725 -2.1097287112347427 0 0 0
6924 1 1 0 75.60743565212395 5.84578360497305 -1.6327678496330915 0 0 0
9780 1 2 0 75.20325765234234 7.340227472423997 -2.1496374978297172 0 0 0
9787 1 2 0 77.18137386056834 5.561806614951051 -2.071432243524247 0 0 0
6928 1 1 0 78.76852653303239 5.339192923752539 -1.6352834858343157 0 0 0
9791 1 2 0 79.94103803637718 6.418802054770649 -2.123959642794746 0 0 0
9792 1 2 0 82.73590578729736 7.0817533645256985 -2.04518301525215 0 0 0
6934 1 1 0 84.31223624656424 6.731600014600144 -1.6255913805976603 0 0 0
9804 1 2 0 84.67218788724836 5.189033076610001 -2.0808910108522367 0 0 0
9805 1 2 0 91.31331675424728 5.219592748682214 -2.1236842208661777 0 0 0
6935 1 1 0 91.926654306734 6.664717344812393 -1.6362186972448833 0 0 0
9806 1 2 0 93.52555206031664 6.794773511891161 -2.0638119550866616 0 0 0
6942 1 1 0 95.12764313780085 6.762714793291064 -1.6310231481202668 0 0 0
9818 1 2 0 95.96039289082273 5.397653175435628 -2.0734184901419352 0 0 0
6948 1 1 0 102.04055408962961 6.455515776662688 -1.6271533334617574 0 0 0
9824 1 2 0 101.22423863500576 5.1034633511306176 -2.032164024212262 0 0 0
9310 1 2 0 5.88934117622313 8.009217016930398 -2.0001492831716177 0 0 0
6623 1 1 0 7.423014156382511 8.378232690475532 -1.5961353904947697 0 0 0
9348 1 2 0 11.870315026282062 8.164459290526992 -2.0176891760239726 0 0 0
6644 1 1 0 12.652041989597613 9.55248556760821 -1.6206592607903858 0 0 0
9349 1 2 0 14.184164662907303 9.232895688246941 -2.121103187964951 0 0 0
6840 1 1 0 15.60863493110046 8.575837021076683 -1.643653507289635 0 0 0
9646 1 2 0 16.826891108838044 9.532377673640871 -2.158293761397328 0 0 0
9656 1 2 0 19.432093453086384 9.41861966296156 -2.0740396343194307 0 0 0
6849 1 1 0 20.738614408482206 8.531027475756048 -1.6279570645008328 0 0 0
9661 1 2 0 22.060762430495238 9.322975061225506 -2.1791935151906188 0 0 0
9666 1 2 0 24.780479635151522 9.53210076831075 -2.14079383952842 0 0 0
6855 1 1 0 26.219391290846236 8.996798503834325 -1.6236456397783139 0 0 0
9670 1 2 0 26.195828100118895 7.4571991919457234 -2.1605453427521506 0 0 0
6867 1 1 0 31.540166731543046 7.629437483852316 -1.6197877176175504 0 0 0
9690 1 2 0 31.20663947323321 9.169628961518201 -1.982786565805128 0 0 0
9696 1 2 0 35.6989043195408 8.115994239091421 -2.023321515677441 0 0 0
6872 1 1 0 36.50089708537285 9.489704880182675 -1.6170977500112018 0 0 0
9699 1 2 0 38.07807210084579 9.305554284705492 -2.1062012029996944 0 0 0
6877 1 1 0 39.59543408519585 8.815296135399125 -1.6517212998001365 0 0 0
9706 1 2 0 40.791497795824 9.831330058343942 -2.153435333054944 0 0 0
6885 1 1 0 45.05060635791779 9.498134512902531 -1.63451396093804 0 0 0
9720 1 2 0 45.518581932566384 8.018617705013057 -2.125765399414873 0 0 0
6889 1 1 0 51.536717518446196 8.471795623528724 -1.6315148047781096 0 0 0
9727 1 2 0 53.01684964321147 8.05206884672953 -2.121805143797618 0 0 0
6890 1 1 0 54.48395733218015 7.566415139354455 -1.6349538909673398 0 0 0
9730 1 2 0 55.47277681835414 8.77030778203729 -2.1457923468120494 0 0 0
9735 1 2 0 57.90488951583262 9.686866347254977 -2.1635557669449454 0 0 0
6900 1 1 0 59.37470467447143 9.22692850850261 -1.6170467091568144 0 0 0
9746 1 2 0 59.79238872918251 7.7120981292299335 -2.112463454012564 0 0 0
9762 1 2 0 63.704414591385806 7.471414887814141 -2.097096431636249 0 0 0
6910 1 1 0 63.998684563722826 9.05115850804611 -1.6409802266414786 0 0 0
9763 1 2 0 65.50350654132451 9.475901303925038 -2.160126318918694 0 0 0
9765 1 2 0 68.12489061019642 8.82730732814915 -2.1031220488207296 0 0 0
6912 1 1 0 69.27338198829908 7.724750443334871 -1.5980458119983978 0 0 0
9766 1 2 0 70.75789262181826 8.355335940686412 -1.8838193894986208 0 0 0
6914 1 1 0 71.80307925120663 9.574540330749153 -1.6065980424390682 0 0 0
9770 1 2 0 73.32672301587303 9.285908741722839 -2.148166566636468 0 0 0
6920 1 1 0 74.8221607139118 8.838030372346163 -1.635443394099995 0 0 0
9779 1 2 0 76.06022326171944 9.804438469468638 -2.08168876744756 0 0 0
9789 1 2 0 80.81215233378157 8.988461472576127 -2.1007211258900194 0 0 0
6927 1 1 0 81.16303601741211 7.446793943710468 -1.6286724027765709 0 0 0
9796 1 2 0 85.5452749466531 7.746250205357005 -2.1265223230992327 0 0 0
6929 1 1 0 86.61815166301677 8.922154962471733 -1.607063843833214 0 0 0
9794 1 2 0 88.23407557900939 8.991437008400323 -2.094861654991369 0 0 0
6930 1 1 0 89.85837280742538 9.061950907249619 -1.6350557532105514 0 0 0
9798 1 2 0 90.87080271047505 7.842741216591397 -2.1489930002496505 0 0 0
6940 1 1 0 97.02779559759915 9.249743980449285 -1.6047324143261157 0 0 0
9814 1 2 0 95.94028965366088 8.120043907703577 -2.1257948238765896 0 0 0
6945 1 1 0 100.11991048740671 8.853450074234946 -1.609729567783839 0 0 0
9815 1 2 0 98.53103798930135 8.690145271399922 -1.9163999268749516 0 0 0
9822 1 2 0 101.08190481193918 7.66220485318085 -2.1585504978480605 0 0 0
6624 1 1 0 7.94957315904894 11.537802414352424 -1.620082431283765 0 0 0
9314 1 2 0 7.756113423659558 9.94147077902758 -2.0936951259417826 0 0 0
9317 1 2 0 9.469921067039735 12.0671008231559 -1.992939144451432 0 0 0
9346 1 2 0 11.935494313749293 10.963122739423088 -2.117737181177643 0 0 0
6643 1 1 0 11.063005181740344 12.289848728416656 -1.6199941614190947 0 0 0
6846 1 1 0 18.145634805488278 10.338199516182751 -1.6320087745504726 0 0 0
9655 1 2 0 18.111703232474948 11.901502796200395 -2.1441673362961673 0 0 0
6852 1 1 0 23.36604037942034 10.128640084513652 -1.6296482189261627 0 0 0
9665 1 2 0 23.530670225941876 11.663174513583636 -2.106349937268785 0 0 0
9671 1 2 0 27.501288609366885 9.936434364968223 -2.010615623921322 0 0 0
6865 1 1 0 28.354461495059272 11.283309843540982 -1.6276400858636875 0 0 0
9688 1 2 0 29.922708375962614 11.274502989134486 -2.103689248070969 0 0 0
6868 1 1 0 31.38929313730928 10.739331539053723 -1.5989141149426496 0 0 0
9693 1 2 0 32.83879502560457 11.306802403729051 -2.117466274146704 0 0 0
6873 1 1 0 34.33500354687759 11.805357981156062 -1.6430346580474162 0 0 0
9698 1 2 0 35.57211133175624 10.788342250555495 -2.082740179199026 0 0 0
6878 1 1 0 42.12827765350033 10.629684672585581 -1.6233257429199208 0 0 0
9708 1 2 0 42.23340118762396 12.193191644696212 -2.0904746251918285 0 0 0
9709 1 2 0 43.5190181472317 9.879242928754593 -2.0484655005125783 0 0 0
9721 1 2 0 46.23984345365707 10.495229933788286 -2.1543467654841693 0 0 0
6899 1 1 0 47.357480608643975 11.56672119745183 -1.6303189302811916 0 0 0
9733 1 2 0 48.902378586806215 11.471469539213011 -2.1691002748520503 0 0 0
6891 1 1 0 50.4518756749808 11.356968922044993 -1.6366306004751472 0 0 0
9728 1 2 0 51.07827536553352 9.941985179900898 -2.1290186253460437 0 0 0
9734 1 2 0 55.895596226030385 11.524056658309119 -2.0547754253884714 0 0 0
6892 1 1 0 56.39702481255443 10.022432394038882 -1.6335738058259548 0 0 0
9747 1 2 0 60.40728587879403 10.440112472272709 -1.9953445098200104 0 0 0
6907 1 1 0 61.738536641412395 11.32083271617678 -1.6146156585835303 0 0 0
9758 1 2 0 62.95383207774931 10.275044098268685 -2.0798643958449397 0 0 0
6913 1 1 0 66.99045234947656 9.96409955047286 -1.6455440633565739 0 0 0
9768 1 2 0 67.192206740003 11.558761211889767 -2.0920626362101644 0 0 0
9769 1 2 0 71.1331091006899 10.969356204804576 -2.130782234332567 0 0 0
6921 1 1 0 77.15687085706146 10.926427503976637 -1.6294605726267637 0 0 0
9782 1 2 0 78.70224220678537 10.69509627371224 -2.1577437690516663 0 0 0
6926 1 1 0 80.25062235515786 10.462967068999474 -1.6255511748071676 0 0 0
9790 1 2 0 81.26740947972077 11.69897758779744 -2.0365138797583215 0 0 0
9795 1 2 0 85.7117579832587 10.2715580299882 -1.9007702377199847 0 0 0
6931 1 1 0 85.37662076380593 11.851197637249113 -1.5980544885443178 0 0 0
9797 1 2 0 90.70605575622034 10.437366773535723 -2.0329617762202483 0 0 0
6932 1 1 0 91.09741796088551 11.998686737842535 -1.6121923129637985 0 0 0
9813 1 2 0 96.93633285378802 10.816437810519016 -2.113631229316415 0 0 0
6946 1 1 0 101.43356156634471 11.607119530328227 -1.6243495138376298 0 0 0
9821 1 2 0 100.71198726246575 10.25981774772319 -2.1549977848178576 0 0 0
9328 1 2 0 102.96906405449384 11.757341242933995 -2.1392471290629334 0 0 0
6625 1 1 0 5.627664770467935 13.73253670195594 -1.621994687988599 0 0 0
9316 1 2 0 6.841623665439162 12.692485388314738 -2.120167771059852 0 0 0
9347 1 2 0 11.586986762436274 13.794539374821808 -2.1177487894946516 0 0 0
9657 1 2 0 16.6852349139719 14.31638294561391 -2.1335609542022715 0 0 0
6847 1 1 0 18.0362412022901 13.472258432432183 -1.6450782605270182 0 0 0
9658 1 2 0 19.478560377135448 14.129235955154575 -2.0897565826619653 0 0 0
6854 1 1 0 21.00627486031195 14.489655074908537 -1.6314881015445462 0 0 0
9667 1 2 0 22.354520751253904 13.752132156249719 -2.182865222740443 0 0 0
6853 1 1 0 23.777810161902973 13.18835967991566 -1.6179763204016795 0 0 0
9668 1 2 0 25.212051430133037 13.837065945108757 -2.064812243958066 0 0 0
6866 1 1 0 26.792945513844394 13.949579207781515 -1.6453144288933752 0 0 0
9687 1 2 0 27.577164797279412 12.614066493917132 -2.151693907606579 0 0 0
9700 1 2 0 34.473184629904935 13.366303035480751 -2.152140890191618 0 0 0
6881 1 1 0 42.727951471837905 13.68251989982144 -1.6374867130916966 0 0 0
9715 1 2 0 44.24645438464388 14.020047851487028 -2.1251980548520306 0 0 0
6973 1 1 0 45.77404896153211 14.218009590205241 -1.6118567014273817 0 0 0
9745 1 2 0 46.71418670616917 12.982668242805474 -2.0578497898990564 0 0 0
9732 1 2 0 51.49781088796752 12.521461402682785 -2.112978920070496 0 0 0
6894 1 1 0 52.54568496043639 13.692695081644507 -1.6462055767067791 0 0 0
9736 1 2 0 54.10828387624934 13.492487085089758 -2.1278728167796523 0 0 0
6893 1 1 0 55.62975589587872 13.086978909078164 -1.6201780001005393 0 0 0
9737 1 2 0 56.88428508104343 14.062976334675918 -2.0876609440722156 0 0 0
6908 1 1 0 61.17923833911848 14.485379784052048 -1.6280686046598578 0 0 0
9757 1 2 0 61.59123680132163 12.92156722670779 -2.1200858521814268 0 0 0
9773 1 2 0 67.041443153434 14.56106272050642 -2.1073411287176866 0 0 0
6916 1 1 0 67.6629148239655 13.085345071400708 -1.6017813743516303 0 0 0
9771 1 2 0 69.2574862928561 13.037091006862555 -1.9625833924073326 0 0 0
6915 1 1 0 70.73994293765429 12.464662985917117 -1.6107319348983262 0 0 0
9772 1 2 0 71.85477581311027 13.503658337599958 -2.158674919662357 0 0 0
6923 1 1 0 72.93607379778358 14.59506035841892 -1.6482236023093724 0 0 0
9783 1 2 0 74.41568963534158 14.125881276136031 -2.1273154307185913 0 0 0
6922 1 1 0 75.92186794180634 13.774830029474314 -1.6309570754287641 0 0 0
9781 1 2 0 76.51655142077549 12.342979223673584 -2.1151764014768943 0 0 0
6939 1 1 0 82.37549460043145 12.861607728694578 -1.634897933807095 0 0 0
9812 1 2 0 81.86463413304536 14.37673394344362 -2.1111461774018148 0 0 0
9800 1 2 0 83.9035075591419 12.413617013391251 -2.1231080120024166 0 0 0
6933 1 1 0 88.17431055574782 13.202789533197787 -1.6199596432941548 0 0 0
9799 1 2 0 86.76988473486658 12.537382675396927 -2.131446138386436 0 0 0
9803 1 2 0 88.1503541991109 14.716736610480137 -2.170634776970498 0 0 0
9801 1 2 0 89.6507476956109 12.645604923357029 -2.0548399146092784 0 0 0
9802 1 2 0 92.45864686890317 12.849877262780574 -2.122494787244086 0 0 0
6943 1 1 0 93.88912607981766 13.597991804423216 -1.6523725497185187 0 0 0
9816 1 2 0 95.27130845522245 12.851165190557888 -2.1498956771594826 0 0 0
6941 1 1 0 96.7688230780787 12.390728846980222 -1.644240004587413 0 0 0
9817 1 2 0 97.99802012094689 13.425376914567142 -2.0770542398470346 0 0 0
6947 1 1 0 99.47090985951255 14.042650100859268 -1.6005667674604107 0 0 0
9823 1 2 0 100.53312754249343 12.88631392253845 -2.035012489832122 0 0 0
9318 1 2 0 5.562967986142921 15.333491392415086 -2.1125767226999903 0 0 0
6666 1 1 0 5.396449821290303 16.9264535140002 -1.6412314761185394 0 0 0
9385 1 2 0 11.4960615205764 16.669948764653256 -2.110125361467892 0 0 0
6670 1 1 0 12.268890761463489 15.24158410855628 -1.6292551231339034 0 0 0
9387 1 2 0 13.88928343532853 15.097948055666137 -1.990300821497142 0 0 0
6848 1 1 0 15.485030701753962 15.35665939880275 -1.618529780915574 0 0 0
9659 1 2 0 15.813236646048118 16.881086735048026 -2.1138167170198536 0 0 0
9669 1 2 0 21.564564236009307 15.919953187404605 -2.1460412427468474 0 0 0
9689 1 2 0 27.625168942885917 15.260587490778997 -2.1737201757700064 0 0 0
6963 1 1 0 28.428842449625286 16.558781161608046 -1.5949882169154128 0 0 0
9711 1 2 0 34.0917603998227 16.23412407347165 -2.148695710586909 0 0 0
6879 1 1 0 34.8691228363112 14.868339622989064 -1.6212493848489549 0 0 0
9710 1 2 0 36.46502762701437 14.987446416262777 -1.9443524996542603 0 0 0
6880 1 1 0 37.74858653521903 15.92682621008059 -1.6101999883342717 0 0 0
9712 1 2 0 39.29477043292708 15.827302499265308 -2.1325304800643834 0 0 0
6882 1 1 0 40.83583789359735 16.111909516886573 -1.6523754825290848 0 0 0
9714 1 2 0 41.756533544125766 14.873446564101473 -2.1815661541217435 0 0 0
9862 1 2 0 46.66284615032849 15.462547274988477 -2.153281367280748 0 0 0
6975 1 1 0 47.8125648466118 16.47648831621447 -1.6257218806357083 0 0 0
9863 1 2 0 49.34104832906283 16.029740336342925 -1.951972499793693 0 0 0
6974 1 1 0 50.90934756096309 16.309857815555947 -1.6114884460526935 0 0 0
9738 1 2 0 51.87835131467509 15.104608325549892 -2.141522915846911 0 0 0
9761 1 2 0 57.4761065574801 16.683653693409163 -2.1282441280488964 0 0 0
6909 1 1 0 58.00889563525902 15.192332818249556 -1.6286007455772642 0 0 0
9759 1 2 0 59.595042533119354 14.853813526625608 -2.0365022289465573 0 0 0
9760 1 2 0 62.2685463984154 15.706151765147538 -2.038728130126306 0 0 0
6978 1 1 0 63.4500917103973 16.83490680389616 -1.6261297168614657 0 0 0
9869 1 2 0 64.9881111893173 16.3979698887467 -2.1160250235993794 0 0 0
6979 1 1 0 66.5654636424095 16.109892374708412 -1.6579779009392317 0 0 0
9785 1 2 0 72.41509097979156 16.051678630465638 -2.1662086275687225 0 0 0
9784 1 2 0 76.90915991195034 14.937260513160307 -2.1734022103262505 0 0 0
6982 1 1 0 77.93671718748188 16.051338971746112 -1.6105671467423457 0 0 0
9873 1 2 0 79.44181203783643 15.531389669155795 -1.9204016119698857 0 0 0
6981 1 1 0 81.02774823843455 15.71864759017156 -1.598077422083466 0 0 0
9876 1 2 0 87.14501099367811 17.129220269725895 -2.1241471588403655 0 0 0
6983 1 1 0 88.40174674036157 16.21760403201224 -1.660112109408347 0 0 0
9877 1 2 0 89.88512777505764 16.652290793088156 -2.172980444961598 0 0 0
9883 1 2 0 92.782229599733 16.74483236910449 -2.0658094617562166 0 0 0
9819 1 2 0 94.28359190402163 15.151220744252173 -2.10617337181426 0 0 0
6988 1 1 0 94.35678994166035 16.746338339045742 -1.6038536036300912 0 0 0
9393 1 2 0 100.34476560631197 15.375181470145806 -2.0885037247371234 0 0 0
6673 1 1 0 101.57688149397609 16.401569803847796 -1.6541213354501378 0 0 0
9381 1 2 0 6.572898465266956 17.954202482957168 -2.1572016996542605 0 0 0
9383 1 2 0 9.078858954670617 18.420464108312387 -2.1143191507357626 0 0 0
6668 1 1 0 7.6400303176814095 19.094493627342572 -1.6402231064804331 0 0 0
6669 1 1 0 10.614376484318488 18.019406045046857 -1.6078737487363837 0 0 0
9386 1 2 0 11.050801186903474 19.56582618501254 -2.0297787057072747 0 0 0
6991 1 1 0 16.25166783522536 18.376625454440685 -1.637225630149336 0 0 0
9889 1 2 0 15.231707285078928 19.55484380294836 -2.1085354517498947 0 0 0
9890 1 2 0 17.749765331475764 18.729953920942155 -2.1725412577931844 0 0 0
6994 1 1 0 19.230651608427234 19.027658538391492 -1.5890163204712908 0 0 0
9892 1 2 0 20.296601368060447 17.861847287063604 -1.8536905024315853 0 0 0
6993 1 1 0 21.82198407820694 17.405143357662443 -1.5858980871785604 0 0 0
9893 1 2 0 22.99934847144952 18.353210756012196 -2.166988042340682 0 0 0
6998 1 1 0 24.148887340322666 19.350686202633156 -1.613363338817596 0 0 0
9898 1 2 0 25.661384082016582 19.198277145371204 -2.1415242582996874 0 0 0
9848 1 2 0 27.737028416634068 17.949872929379453 -2.1226576453658037 0 0 0
6997 1 1 0 27.16765394382964 19.372987382153735 -1.5990456639369501 0 0 0
9847 1 2 0 29.686948855036608 17.50697329241138 -2.088916612746608 0 0 0
6964 1 1 0 30.58232465196201 18.809244744647614 -1.6402538326609724 0 0 0
9845 1 2 0 31.959803618247935 18.132125772919924 -2.1848154826694355 0 0 0
6962 1 1 0 33.41822724079321 17.646130830402225 -1.6293931901704493 0 0 0
9846 1 2 0 33.89195139264469 19.146996909401526 -2.1339509631730884 0 0 0
9713 1 2 0 37.152411101532664 17.361092840660458 -2.0855988192098884 0 0 0
6970 1 1 0 36.9766669785767 18.877739970622983 -1.565880047598271 0 0 0
9859 1 2 0 38.37561357531604 19.58886738573089 -1.8711499646564431 0 0 0
9716 1 2 0 41.423324710072954 17.572741618070022 -2.1283875679951767 0 0 0
7006 1 1 0 41.80094140676095 19.088308961566263 -1.6248218619114339 0 0 0
9865 1 2 0 47.42582096096107 17.95101544850878 -2.1720606310488164 0 0 0
7040 1 1 0 46.99470475147037 19.400656939567817 -1.5980804213870063 0 0 0
9864 1 2 0 51.28975156735556 17.80582108441922 -2.137221383768964 0 0 0
7009 1 1 0 51.724092256973364 19.3004670982136 -1.6500279372665652 0 0 0
9917 1 2 0 53.2439096497444 19.566659443938068 -2.1674669103412105 0 0 0
9915 1 2 0 55.95138826613778 19.148762164741953 -2.1256759187443026 0 0 0
7008 1 1 0 57.23203651476788 18.234566749492192 -1.6057675772627549 0 0 0
9916 1 2 0 58.64834946489745 19.001281883933256 -1.9082438501606496 0 0 0
9870 1 2 0 63.16239046604712 18.43108540427332 -2.0620799939593946 0 0 0
9871 1 2 0 67.56711532852847 17.38568365184621 -2.1067127661969636 0 0 0
7014 1 1 0 68.77021752950309 18.45223602287305 -1.6091645343696404 0 0 0
9923 1 2 0 70.16154519603536 17.65083745327569 -1.9491902134395522 0 0 0
7013 1 1 0 71.73856282260273 17.42886521171129 -1.6066609443933357 0 0 0
9924 1 2 0 72.61578325005254 18.699129304576445 -2.0938646783125825 0 0 0
9933 1 2 0 75.21909204704588 19.18122330393213 -2.1732463877021995 0 0 0
9875 1 2 0 77.48125683092627 17.526745337465115 -2.128937275520695 0 0 0
7019 1 1 0 76.7087183225329 18.86064379551948 -1.6083117269818903 0 0 0
9874 1 2 0 81.13279694706857 17.28315616788079 -2.1368261783446107 0 0 0
6985 1 1 0 81.04425499899078 18.859304565881054 -1.64835634479175 0 0 0
9880 1 2 0 82.39392014810178 19.56127179896799 -2.189282995213194 0 0 0
9878 1 2 0 84.88088972205908 19.03232538308397 -2.101951267262738 0 0 0
6984 1 1 0 86.27151547267296 18.382809886312764 -1.5888000098299224 0 0 0
9879 1 2 0 87.21402844615835 19.601468872891765 -2.0677939362455406 0 0 0
9884 1 2 0 91.40603967415322 18.741630074141856 -2.0344052164095725 0 0 0
6987 1 1 0 91.30274932213273 17.19825523181336 -1.5957790263387148 0 0 0
9885 1 2 0 95.11892244866405 18.146291959025284 -2.115306386305062 0 0 0
9392 1 2 0 101.31925668527322 17.938564551155128 -2.167385896645598 0 0 0
6674 1 1 0 101.20866247702571 19.481714780758146 -1.6243151938351725 0 0 0
9384 1 2 0 7.229730657902745 20.65986568590351 -2.0641676542514156 0 0 0
6733 1 1 0 11.41581063768078 21.124496204815255 -1.6099554017135298 0 0 0
9484 1 2 0 12.93861861988048 21.01162081038108 -2.156343853831252 0 0 0
6992 1 1 0 14.465402295046452 20.907630714694918 -1.6393396532162174 0 0 0
9894 1 2 0 20.12229961568278 20.255658846339962 -2.1450248724562067 0 0 0
7058 1 1 0 20.67602933754269 21.685733846902014 -1.6495773045796183 0 0 0
9900 1 2 0 24.021598289100467 20.896881970981 -2.0561500813669067 0 0 0
9899 1 2 0 27.891378216665807 20.804234646001458 -1.8960642205512013 0 0 0
7037 1 1 0 29.26713673393026 21.658481439308073 -1.6006531504389887 0 0 0
9849 1 2 0 30.189190406438794 20.353712543837688 -2.095108401340634 0 0 0
6971 1 1 0 34.44675309419655 20.608303379541564 -1.5963825941858882 0 0 0
9858 1 2 0 35.85066132806014 19.9167541901837 -2.066744127893985 0 0 0
7007 1 1 0 39.30702614174507 20.8633248210846 -1.5777590950563907 0 0 0
9912 1 2 0 40.701663387125684 20.205607884988744 -2.0617948393592167 0 0 0
9913 1 2 0 43.09790276210789 19.91152925960472 -2.1759569063032607 0 0 0
7041 1 1 0 44.29910337924314 20.86869581241587 -1.6230710889167617 0 0 0
9962 1 2 0 45.586339628929665 20.006400596049897 -2.094821298231158 0 0 0
9963 1 2 0 48.124183814016185 20.464696805465163 -2.017435162331061 0 0 0
7046 1 1 0 49.40649762257165 21.349961026838617 -1.5972176866681127 0 0 0
9918 1 2 0 50.70110927756353 20.492242929574193 -2.1136998407442187 0 0 0
7010 1 1 0 54.691395081471896 20.10275815644257 -1.6412441531923756 0 0 0
9919 1 2 0 54.65452298111808 21.679590408770476 -2.104829794227633 0 0 0
9922 1 2 0 58.70528538030716 21.59893407756567 -2.1169350550660586 0 0 0
7012 1 1 0 59.582039945609914 20.3071784617181 -1.607009694870979 0 0 0
9920 1 2 0 61.15329657785077 20.20809268825848 -2.121359220401622 0 0 0
7011 1 1 0 62.733511237151845 20.00168376637554 -1.649498262882787 0 0 0
9921 1 2 0 63.70259944244185 21.314172230948518 -2.1181171669649506 0 0 0
9925 1 2 0 68.95097614311366 20.060317564868683 -2.0850167862691404 0 0 0
7048 1 1 0 69.40387308578701 21.62143266561747 -1.6430030103526052 0 0 0
9935 1 2 0 73.41997692972437 21.24506303497409 -1.9710706644730422 0 0 0
7020 1 1 0 73.78541441607928 19.70792181386398 -1.6151064757435742 0 0 0
9934 1 2 0 77.52617191516414 20.21005921978886 -1.9164871882386434 0 0 0
7054 1 1 0 78.83943761493953 21.090650890793853 -1.5787061977095855 0 0 0
9881 1 2 0 79.94160458542459 19.989167506855544 -2.1291508405182835 0 0 0
6986 1 1 0 83.79201723393491 20.14541109127457 -1.6522519100614386 0 0 0
9882 1 2 0 84.0268924238843 21.670950666452434 -2.170684572746181 0 0 0
7021 1 1 0 88.12229336452769 20.839238596831223 -1.6276540331726275 0 0 0
9936 1 2 0 89.60967315625427 20.61723847338335 -2.1832479776117033 0 0 0
7022 1 1 0 91.05052660753464 20.234526837469318 -1.5960406880268945 0 0 0
9938 1 2 0 92.17699835791672 21.268858161092776 -2.042733423008315 0 0 0
7057 1 1 0 93.53735615552132 22.01140250228111 -1.594321329470933 0 0 0
7025 1 1 0 95.62474803193126 19.672114123358654 -1.6525848319018746 0 0 0
9943 1 2 0 94.67091175392835 20.93949998430783 -2.1079550492612813 0 0 0
9942 1 2 0 97.10876978635676 20.20528300504174 -2.1508584212771042 0 0 0
7026 1 1 0 98.46858644775394 20.977189895342722 -1.6171389471867503 0 0 0
9394 1 2 0 99.78113068860485 20.125186225910333 -2.0747522051087364 0 0 0
9390 1 2 0 102.43233652118118 20.463268278177882 -2.1013842890410834 0 0 0
6711 1 1 0 6.977491411447995 22.255646232728715 -1.6289745743572228 0 0 0
9450 1 2 0 5.624962650969207 23.116413202438913 -2.0948086814286215 0 0 0
9451 1 2 0 8.24297163762493 23.205334558628326 -2.060730000806532 0 0 0
6732 1 1 0 9.711060251933437 23.796759714144198 -1.6295853369108864 0 0 0
9482 1 2 0 10.667818812572202 22.518029950256082 -2.1150798970881817 0 0 0
9891 1 2 0 15.006540559945691 22.334206336457314 -2.197185201811753 0 0 0
7059 1 1 0 15.502187722996188 23.763562304753723 -1.6185348390737613 0 0 0
9989 1 2 0 17.018896847191836 23.869313382349198 -2.1404571350437944 0 0 0
7060 1 1 0 18.520429610606687 23.738235334195306 -1.6259436339509283 0 0 0
9987 1 2 0 19.412452843393535 22.52715980950932 -2.163530305197618 0 0 0
7061 1 1 0 23.63479845541536 22.396898640168608 -1.610338979073278 0 0 0
9988 1 2 0 22.093596873112208 22.305207354758775 -2.1248523225345592 0 0 0
9992 1 2 0 24.7000587559498 23.49876527246578 -2.153603502467148 0 0 0
9959 1 2 0 29.241834655734582 23.262040728688103 -2.0751687093960647 0 0 0
9860 1 2 0 34.40728765424992 22.161730765236353 -2.1230533128010385 0 0 0
7068 1 1 0 34.846945881721325 23.673379937432685 -1.631736069880715 0 0 0
10001 1 2 0 36.435762796721775 23.934477579682696 -2.025276965615639 0 0 0
7067 1 1 0 38.01313513133229 23.631851326098012 -1.6364963500187424 0 0 0
9914 1 2 0 38.6231441345449 22.2125311956656 -2.1694647374061824 0 0 0
9964 1 2 0 44.4338023407372 22.43463451649423 -2.0864359454306656 0 0 0
7069 1 1 0 44.957165190302206 23.926804752010874 -1.6347176418434917 0 0 0
10005 1 2 0 46.531987478427546 24.177031876431265 -2.0788951685593853 0 0 0
9971 1 2 0 48.95957905323992 22.839604343177612 -2.102326696389068 0 0 0
7103 1 1 0 48.12505926491262 24.17384057294921 -1.6399333249145458 0 0 0
7076 1 1 0 54.89210083153625 23.227704141869605 -1.611277665019032 0 0 0
10017 1 2 0 53.94280018953239 24.48083521420586 -2.136729401390977 0 0 0
10016 1 2 0 56.473449898746516 23.361446612114317 -2.00246256132587 0 0 0
7077 1 1 0 58.018558602674446 22.999244603913887 -1.619342805145085 0 0 0
10018 1 2 0 58.905288180525154 24.23879253569869 -2.17249029816038 0 0 0
9976 1 2 0 63.51002479946993 24.12932777076935 -2.1331673417854784 0 0 0
7049 1 1 0 64.35871216403484 22.801709044655254 -1.6339221267971662 0 0 0
9975 1 2 0 65.90280757265764 23.31893272576278 -2.0182820745395103 0 0 0
9973 1 2 0 68.41614008310326 22.867234846348822 -2.1420044093321513 0 0 0
7050 1 1 0 67.36006459037839 24.053724103990795 -1.6277465382590686 0 0 0
9974 1 2 0 70.92801379653324 22.109370707912728 -2.093933884494651 0 0 0
7081 1 1 0 72.46050529169983 22.51048100753024 -1.6060668541342489 0 0 0
10024 1 2 0 73.3212219699913 23.83027912706971 -2.1161912904410696 0 0 0
10026 1 2 0 76.02666440978723 24.32233332228125 -2.067481520161454 0 0 0
9982 1 2 0 78.28822411504204 22.5472991470536 -2.1271210272583496 0 0 0
7083 1 1 0 77.59105250441185 23.96500228892814 -1.6416362110705398 0 0 0
9985 1 2 0 83.20159822045642 24.38842217079689 -2.1103921552359926 0 0 0
7056 1 1 0 84.15693202563152 23.18674110738093 -1.5981540934064413 0 0 0
9983 1 2 0 85.60394585456893 23.856745863289657 -1.8781199879990704 0 0 0
9937 1 2 0 87.57142743034828 22.242006226514654 -2.1708062723952937 0 0 0
7055 1 1 0 87.17653250582462 23.690770583918674 -1.6002478240388562 0 0 0
9986 1 2 0 93.03395041521055 23.47076913569535 -2.1607832770810838 0 0 0
9944 1 2 0 98.67815712447874 22.559947765398345 -2.0289523810380286 0 0 0
7091 1 1 0 99.29144203746704 24.04127665367836 -1.6324925797600884 0 0 0
9457 1 2 0 100.85938734967807 24.292849860045852 -2.109281161499991 0 0 0
9483 1 2 0 9.85231763578054 25.394338683188586 -2.1258525525010876 0 0 0
9990 1 2 0 14.834109417073229 25.193632669189284 -1.9655073837474035 0 0 0
7130 1 1 0 15.012896622411484 26.77172472507458 -1.6331625368053544 0 0 0
9991 1 2 0 19.549343740446904 24.84910407516194 -2.1551086861918316 0 0 0
7131 1 1 0 20.386216929212388 26.097856660435273 -1.6014451015814262 0 0 0
10097 1 2 0 21.939844988167774 26.18058462233204 -2.008965993710271 0 0 0
7133 1 1 0 23.330915661635867 26.91395893787356 -1.622012596078282 0 0 0
7063 1 1 0 25.55570865963663 24.800681836357178 -1.6580935917951722 0 0 0
9995 1 2 0 24.636495642295923 26.072614433838798 -2.1098064897286477 0 0 0
9993 1 2 0 27.1133156381356 24.847527261481304 -2.1575569996226864 0 0 0
7062 1 1 0 28.67910790879611 24.783178108524876 -1.643446147492865 0 0 0
9994 1 2 0 29.46141842862535 26.20479128703898 -2.081460221586229 0 0 0
7098 1 1 0 33.40415666089794 26.47604088115734 -1.6174781562263583 0 0 0
10003 1 2 0 33.76312762702254 24.880864751096343 -1.9624595289806623 0 0 0
10049 1 2 0 34.99828181844103 26.770768391959493 -2.1397513336438267 0 0 0
7142 1 1 0 36.606596319237156 26.927233392631564 -1.6325000263575504 0 0 0
10007 1 2 0 38.244036106763005 26.643743911431436 -2.037857083878344 0 0 0
10002 1 2 0 39.14760409314833 24.72432670746235 -2.0875229969644726 0 0 0
7070 1 1 0 39.834192105702385 26.15517266831876 -1.626810653444418 0 0 0
10006 1 2 0 41.438447941104464 26.5087246350745 -2.1098983704603818 0 0 0
7071 1 1 0 43.085943022392435 26.462444367854694 -1.6389547784596261 0 0 0
10004 1 2 0 43.89438974795085 25.09638918725263 -2.1284149288340624 0 0 0
10054 1 2 0 49.03662632425896 25.443883506239104 -2.147225440079506 0 0 0
7108 1 1 0 50.14436357461428 26.5348959175686 -1.6125190951602042 0 0 0
10059 1 2 0 51.69243351881745 26.216868657168714 -2.1140355418661683 0 0 0
7107 1 1 0 53.24902360352828 25.90570327282168 -1.634765368760475 0 0 0
7113 1 1 0 59.68305157487693 25.55133445371328 -1.630107727117143 0 0 0
10069 1 2 0 58.927967285026405 26.893450070922096 -2.150406227480485 0 0 0