LAMMPS data file via write_data, version 23 Jun 2022, timestep = 6659

15336 atoms
2 atom types

5.288459869000156 196.72922453391422 xlo xhi
4.129252903804903 172.64563973318278 ylo yhi
-100 100 zlo zhi

Masses

1 28.085
2 15.999

Atoms # full

9163 1 2 0 6.264909263826675 4.549612955563739 -2.078227288555964 0 0 0
6523 1 1 0 7.880015644405574 4.627105596393949 -1.6320690415750108 0 0 0
9172 1 2 0 8.833921933387693 5.891087813165871 -2.1071293130439193 0 0 0
9604 1 2 0 14.29546090531871 4.32248519333047 -2.0923512355988954 0 0 0
6805 1 1 0 15.619152781347713 5.220902009619199 -1.6452610171263684 0 0 0
9605 1 2 0 17.145390844915095 4.80789490309467 -2.1248371548996725 0 0 0
6817 1 1 0 18.663449390931397 4.438998122506733 -1.6013826107194542 0 0 0
9622 1 2 0 20.052603523058114 5.134496659870204 -2.1398534885623817 0 0 0
6816 1 1 0 21.458906464089946 5.820076470143017 -1.6394449945732879 0 0 0
9623 1 2 0 22.870065066480695 5.129452298090607 -2.106855852716353 0 0 0
6826 1 1 0 24.26307138493267 4.3940217708240255 -1.6458265131834982 0 0 0
9637 1 2 0 25.672170179046518 5.109297404148377 -2.139187296456666 0 0 0
6825 1 1 0 27.205564106526538 5.468719585227628 -1.6242770820926635 0 0 0
9638 1 2 0 28.228777759589665 4.27064402119635 -2.0521096976301925 0 0 0
9645 1 2 0 30.95792200838726 4.357379958375261 -2.1328339847483146 0 0 0
6830 1 1 0 32.35973732080911 4.997396675296089 -1.6099148153410208 0 0 0
9646 1 2 0 33.68434998904208 4.227662722907282 -2.1516308846853014 0 1 0
6838 1 1 0 37.84210994814787 4.510382212809793 -1.615187390234764 0 0 0
9656 1 2 0 37.942642241547915 6.1298290818998575 -2.0110549665896875 0 0 0
6844 1 1 0 43.02486707753241 6.195915124141494 -1.6047335398738858 0 0 0
9668 1 2 0 42.8014617724144 4.6270598735014925 -2.0114569712517296 0 0 0
9669 1 2 0 44.54467350133788 6.381771777834978 -2.161689313900646 0 0 0
6847 1 1 0 46.073300566198064 6.424397376146846 -1.6240703090883157 0 0 0
9674 1 2 0 47.00493896168233 5.1832217902854465 -2.0760884182300945 0 0 0
9684 1 2 0 50.62211787341172 6.41830397418037 -2.128595203021547 0 0 0
6855 1 1 0 50.7646556281673 4.8593318683858175 -1.637760256390798 0 0 0
9698 1 2 0 56.836461475216396 5.488657025943798 -2.1953549599564997 0 0 0
9705 1 2 0 61.39081486656121 6.147153341551324 -2.151603944159176 0 0 0
6868 1 1 0 62.47696476818306 5.03308396101554 -1.6302324438125912 0 0 0
9708 1 2 0 63.99184427373342 5.593352631190443 -2.0906737815158105 0 0 0
6872 1 1 0 65.50648737654124 6.176381872786793 -1.6490436392334775 0 0 0
9715 1 2 0 66.53763451782838 4.94210495866804 -2.10457531212152 0 0 0
6885 1 1 0 70.62225868340484 4.534800169670061 -1.6282681981408018 0 0 0
9725 1 2 0 71.08037144620774 6.1483663989719926 -1.9687064862294248 0 0 0
6886 1 1 0 77.08559114455619 5.2589829038024885 -1.6271160195750107 0 0 0
9739 1 2 0 78.70747186001876 5.2355215339011 -2.0976772827685135 0 0 0
6892 1 1 0 80.32186022463812 5.159893436375304 -1.6202769416676335 0 0 0
9745 1 2 0 81.21796265534515 6.445832716836142 -2.1141777783288718 0 0 0
9759 1 2 0 86.33151622794395 4.276147726692368 -2.0170297265055797 0 0 0
6899 1 1 0 86.95812799986646 5.73621443768715 -1.611524970532153 0 0 0
9760 1 2 0 88.52104625810178 5.8924992112259735 -2.097476324393054 0 0 0
6904 1 1 0 90.07588079417523 6.162968627889916 -1.6388089445956422 0 0 0
9768 1 2 0 91.09433728654369 4.9659700340001 -2.13837381650113 0 0 0
6910 1 1 0 95.25183334059366 4.307639102078185 -1.6322390103249171 0 0 0
9774 1 2 0 95.9283314182824 5.714005671758873 -2.1542436977128725 0 0 0
9775 1 2 0 93.68104713688305 4.148821197292789 -2.072030190867333 0 1 0
9161 1 2 0 5.503514832150136 8.419898085050914 -2.1098410790210806 0 0 0
6522 1 1 0 9.593166720237962 7.265917985272055 -1.606624093910274 0 0 0
9168 1 2 0 8.332915650969456 8.204033584075855 -2.0537645640018183 0 0 0
9173 1 2 0 11.099129026055266 7.802103947478296 -2.053600889005529 0 0 0
6803 1 1 0 12.297020195196293 8.876914982849375 -1.640586584957324 0 0 0
9601 1 2 0 13.874709931323494 8.73045325081813 -2.150067361195287 0 0 0
6804 1 1 0 15.411179612464403 8.326989878027314 -1.6396561746268032 0 0 0
9602 1 2 0 15.500770565099856 6.772506251834843 -2.1400936294363992 0 0 0
9620 1 2 0 21.40910541373768 7.365152980939105 -2.1476051623533583 0 0 0
6815 1 1 0 21.241516789178085 8.902196216606853 -1.6328218164965782 0 0 0
9635 1 2 0 28.068844532399268 6.797862383259093 -2.0987027297105083 0 0 0
6824 1 1 0 29.010711707157625 8.080688606904765 -1.6354504262899496 0 0 0
9636 1 2 0 30.609128585598057 8.238435104766468 -2.089158165485187 0 0 0
6829 1 1 0 32.20852973372749 8.111056265554723 -1.597526057262128 0 0 0
9643 1 2 0 32.50243593654971 6.561361552420776 -1.9995306559747636 0 0 0
9644 1 2 0 33.60698314838629 8.917406327720354 -2.0632374699502867 0 0 0
9652 1 2 0 36.48085697472625 8.625229352298867 -2.0488514584273116 0 0 0
6837 1 1 0 37.894292754434744 7.7625459261564425 -1.6262214271996143 0 0 0
9657 1 2 0 39.39178491797376 8.37787672065714 -2.107920703885113 0 0 0
6840 1 1 0 40.98806247204498 8.641110173031812 -1.6357252013830783 0 0 0
9662 1 2 0 41.934768200686804 7.34538909552041 -2.065781471503712 0 0 0
9673 1 2 0 46.71480587648141 7.809522044222088 -2.1268020684938866 0 0 0
9676 1 2 0 49.039989363399336 8.76409069416966 -2.0749401982244984 0 0 0
6854 1 1 0 50.407186503983766 7.96679190439575 -1.6372336890272194 0 0 0
9685 1 2 0 51.66291265768987 8.858891537035863 -2.15243263152343 0 0 0
9689 1 2 0 56.252245420219545 7.9810646995072 -2.070586848767114 0 0 0
6862 1 1 0 57.37670522240168 6.900277674607446 -1.6358138214603477 0 0 0
9699 1 2 0 58.89403450585082 7.245908872993246 -2.118323451949546 0 0 0
6866 1 1 0 60.44313563031742 7.365469722123819 -1.615095655104827 0 0 0
9704 1 2 0 61.14520626667276 8.794173653419467 -1.9607324505568473 0 0 0
9712 1 2 0 65.99060359208877 7.755541417363965 -2.0944110810578667 0 0 0
6878 1 1 0 71.72179775034682 7.703054971833041 -1.6257676744820482 0 0 0
9723 1 2 0 73.37733162992431 7.726541203876583 -2.062568461557559 0 0 0
6879 1 1 0 75.0202257618895 7.804153058016297 -1.624647033929834 0 0 0
9727 1 2 0 76.06908305115378 6.542764911018385 -2.0135169296823574 0 0 0
6890 1 1 0 81.92379868116042 7.843790828599286 -1.639503937642374 0 0 0
9746 1 2 0 83.48303069627951 8.062515882474232 -2.131781557276079 0 0 0
6895 1 1 0 85.05515914049212 8.216968960296631 -1.6443492387387955 0 0 0
9753 1 2 0 85.98326050611969 6.952217856417663 -2.1395200250927853 0 0 0
9765 1 2 0 90.57023097185466 7.65474760887078 -2.119453607095996 0 0 0
9770 1 2 0 95.42201244981317 8.326098401134907 -2.117539509497327 0 0 0
6909 1 1 0 96.48124047688371 7.174156219905447 -1.6321525370051322 0 0 0
9008 1 2 0 98.02861561553827 7.516236515330612 -2.0788323906448545 0 0 0
6424 1 1 0 99.58936431567956 7.80716213874181 -1.6425862915324225 0 0 0
9007 1 2 0 100.62196312646554 6.643897492202241 -2.147827314253498 0 0 0
6519 1 1 0 6.957481778678624 8.951496246806656 -1.6068943138823895 0 0 0
9167 1 2 0 7.2737871544448085 10.44036695114868 -2.1351223195414817 0 0 0
9267 1 2 0 11.67638914535943 10.305413447883836 -2.1258350549794667 0 0 0
9603 1 2 0 16.795757964152834 9.150968075040062 -2.0801874296539458 0 0 0
6812 1 1 0 18.194705565592493 9.942534528884417 -1.6185764074432112 0 0 0
9616 1 2 0 19.69846157002281 9.368333369567598 -2.040008398936529 0 0 0
9621 1 2 0 22.63716023704208 9.657208839677041 -2.1430372297258997 0 0 0
6820 1 1 0 23.997125692224696 10.458423169556799 -1.6026123533377292 0 0 0
9629 1 2 0 25.588890700565337 10.386766860103256 -2.0978638532986316 0 0 0
6823 1 1 0 27.179153254274464 10.573325529121384 -1.6396996053612296 0 0 0
9633 1 2 0 28.10117658131092 9.331055547739325 -2.1715092425017497 0 0 0
6834 1 1 0 35.10524338872296 9.554897637605341 -1.637631935202739 0 0 0
9651 1 2 0 35.05822685786523 11.176138748898836 -2.114658124694969 0 0 0
9661 1 2 0 41.7066650675508 10.096382980291187 -2.065698260183117 0 0 0
9675 1 2 0 46.55897482607945 10.353968163787274 -2.1203314896746517 0 0 0
6848 1 1 0 47.50664218049818 9.11823705311677 -1.6155642950761373 0 0 0
6857 1 1 0 52.64339524740126 10.03815586965913 -1.6205820807964435 0 0 0
9687 1 2 0 54.18375675752511 9.874144906903814 -2.1366238089069847 0 0 0
6856 1 1 0 55.661131804977416 9.419574218973112 -1.613406960866162 0 0 0
9688 1 2 0 56.941746274969034 10.314309215893193 -2.0855143347056675 0 0 0
6858 1 1 0 58.22320157572312 11.211526224438428 -1.6301493401058609 0 0 0
9692 1 2 0 59.74357214420252 10.873322874352258 -2.133273073929292 0 0 0
6867 1 1 0 61.223531442504374 10.385710581482154 -1.6056386856370297 0 0 0
9706 1 2 0 62.63943851650552 11.07688222708753 -2.118161509127401 0 0 0
6871 1 1 0 66.49273880843067 9.328408421251376 -1.6322898152049872 0 0 0
9713 1 2 0 65.34420022682215 10.487843643380657 -2.027608315219814 0 0 0
9714 1 2 0 68.06573937334171 9.871166918328274 -2.0229021476602753 0 0 0
6880 1 1 0 69.64549491140535 10.39800105225821 -1.631835590925467 0 0 0
9724 1 2 0 70.7511244945892 9.098415317136542 -2.04360905839016 0 0 0
9726 1 2 0 75.78904373739289 9.199256280589772 -2.124066854417377 0 0 0
6881 1 1 0 76.7572112807172 10.459196046853139 -1.637966716738932 0 0 0
9730 1 2 0 78.33565463585755 10.204313473476722 -2.0533714340877474 0 0 0
6891 1 1 0 79.92291285494544 10.20146809673195 -1.6238579703461515 0 0 0
9744 1 2 0 80.85809274499694 8.972203145102066 -2.163460979378906 0 0 0
9752 1 2 0 85.78502347660041 9.621587095313147 -2.0922680569379413 0 0 0
6896 1 1 0 86.40311106548546 11.074438845166076 -1.6354203244427377 0 0 0
9764 1 2 0 90.40030986550252 10.402290485063794 -2.1279373954535066 0 0 0
6902 1 1 0 91.23694352199544 9.074700014578434 -1.6400780227977296 0 0 0
9766 1 2 0 92.80101057913596 9.138077673403156 -2.1138377261661416 0 0 0
6905 1 1 0 94.33171053629125 9.444852371959739 -1.6351884068020888 0 0 0
9769 1 2 0 94.76949624604336 10.92739400140271 -2.155558691269551 0 0 0
6423 1 1 0 100.57910584583703 10.747431523254784 -1.6108478051147546 0 0 0
9005 1 2 0 100.21220707106717 9.241155872336487 -2.1521933232324253 0 0 0
9169 1 2 0 6.779614825542992 12.882271154789468 -2.1758601372892534 0 0 0
6521 1 1 0 7.8968724927451435 11.839243464974839 -1.6332610675276507 0 0 0
9171 1 2 0 9.448068105980541 11.93323759222571 -2.103579716757623 0 0 0
6583 1 1 0 10.986550293079976 11.689762527567922 -1.6305124521345418 0 0 0
9266 1 2 0 11.894985911878818 12.91018147445909 -2.1753091156770807 0 0 0
6813 1 1 0 18.227572225133056 13.054473999075809 -1.6387787617383474 0 0 0
9615 1 2 0 18.220005031547945 11.49929138096912 -2.1427372268651337 0 0 0
9628 1 2 0 23.57733205638621 11.976950772208886 -1.9955663066878448 0 0 0
6821 1 1 0 23.63044868390753 13.545523681227639 -1.6158768189715949 0 0 0
6827 1 1 0 28.95894667782968 13.201540088099058 -1.608918271142757 0 0 0
9634 1 2 0 28.099534167814582 11.87135079778376 -2.1048688434277194 0 0 0
9641 1 2 0 30.50362034063455 13.600698757167354 -2.119839161801024 0 0 0
9653 1 2 0 33.3729812432977 13.457345813802561 -2.0193274863518584 0 0 0
6835 1 1 0 34.867134528077166 12.782999903741686 -1.6369627748177231 0 0 0
9654 1 2 0 36.18052576404159 13.721692586634322 -2.1043284571961185 0 0 0
9663 1 2 0 41.55614280723005 12.879553991729336 -2.140263428252784 0 0 0
6841 1 1 0 42.44664860634718 11.544398956663725 -1.639910881418667 0 0 0
9664 1 2 0 44.067505566048844 11.655807471363067 -2.0797575660804895 0 0 0
6849 1 1 0 45.6805678173896 11.653697448126408 -1.6174105503577565 0 0 0
9677 1 2 0 46.89439805612679 12.686490272899178 -2.0974680387262885 0 0 0
6927 1 1 0 48.24955803546868 13.521229723435868 -1.6357625677680139 0 0 0
9694 1 2 0 49.79405006804649 13.15176502882258 -2.111642650554956 0 0 0
6859 1 1 0 51.3514434374417 12.89358289243376 -1.6054003479726409 0 0 0
9690 1 2 0 51.84685531847365 11.396721031909259 -2.0196868170647315 0 0 0
9693 1 2 0 52.71125803239705 13.653589832578916 -2.1594048235809744 0 0 0
9691 1 2 0 57.83270962932744 12.67926966723046 -2.1787453318641177 0 0 0
6873 1 1 0 64.14831844835619 11.592219271461012 -1.6356555188747055 0 0 0
9716 1 2 0 64.4607371348036 13.162256771986222 -2.1271486464557743 0 0 0
9728 1 2 0 69.93531431517823 12.113438296178975 -1.995078024379168 0 0 0
9729 1 2 0 76.24257498474026 11.960528187714978 -2.1271761683900468 0 0 0
6883 1 1 0 76.01518384192386 13.53127152591293 -1.6296853499717763 0 0 0
9747 1 2 0 80.77515809546833 11.500183193761627 -2.109119179986567 0 0 0
6897 1 1 0 81.35897284258607 12.941369985879723 -1.640204189588538 0 0 0
9756 1 2 0 82.87325620945056 13.274571912572119 -2.1730668526646744 0 0 0
9754 1 2 0 85.36977057360589 12.242556055161772 -2.116618794669842 0 0 0
6898 1 1 0 84.41545152892118 13.476522437559456 -1.6443501238289246 0 0 0
9755 1 2 0 87.93423759508123 11.414944640028027 -2.1531298183181757 0 0 0
6903 1 1 0 89.48307709651888 11.674369005322879 -1.6319185177432154 0 0 0
9767 1 2 0 90.17237278550466 13.117085843915095 -2.0545551249058125 0 0 0
6906 1 1 0 95.32569382954571 12.359676409816737 -1.6226896667429895 0 0 0
9771 1 2 0 94.3708190709582 13.61210403087242 -2.006611321468492 0 0 0
6526 1 1 0 98.32802186277574 12.831625670306325 -1.6064094183556168 0 0 0
9179 1 2 0 96.82588418251139 12.631722457664523 -2.1774877316422803 0 0 0
9006 1 2 0 99.28367717675773 11.613966928721284 -2.0422912476540005 0 0 0
6520 1 1 0 5.538065896721403 13.79163458127762 -1.6298255922674143 0 0 0
9170 1 2 0 6.297684192557611 15.204936174028857 -2.026468336314356 0 0 0
9268 1 2 0 11.609628344127078 15.444167706380028 -2.065729988487202 0 0 0
6584 1 1 0 12.607084398265512 14.25007723535227 -1.6242760709897126 0 0 0
9269 1 2 0 14.139895647766789 14.36736917871666 -2.140761694024474 0 0 0
6814 1 1 0 15.640639740361694 14.699955235209584 -1.6177698518578583 0 0 0
9617 1 2 0 16.86345765991065 13.778723366969402 -2.1636603797184057 0 0 0
9618 1 2 0 19.54145532718926 13.918899167437496 -2.09411380809133 0 0 0
6822 1 1 0 20.831249837861467 14.80744766568168 -1.6221899116315417 0 0 0
9630 1 2 0 22.24998710120339 14.213221876441422 -2.171131697356927 0 0 0
9631 1 2 0 25.039086923223323 14.187967311574585 -2.1317412844353996 0 0 0
6828 1 1 0 26.374707552592763 14.974419177430436 -1.6165629133140897 0 0 0
9640 1 2 0 27.837729814336637 14.340323778611827 -1.9657238326772317 0 0 0
6836 1 1 0 31.96138461028119 14.279445274053797 -1.6269604998654181 0 0 0
9655 1 2 0 32.01960807803198 15.876532107642868 -2.07271376344047 0 0 0
6842 1 1 0 37.500766191624095 14.639280034738684 -1.6263789732609477 0 0 0
9665 1 2 0 39.0359142154894 14.146872420209917 -2.047903997219265 0 0 0
6843 1 1 0 40.64582514482404 14.194386609629955 -1.634825363663939 0 0 0
9667 1 2 0 41.25452772851419 15.672519192214706 -2.075351919845862 0 0 0
9801 1 2 0 47.84240494796949 14.995242779699662 -2.1873614981549143 0 0 0
6861 1 1 0 54.126685250777044 14.300745604046543 -1.6162426637709528 0 0 0
9697 1 2 0 53.93696398897617 15.837685564226826 -2.059729741182154 0 0 0
9695 1 2 0 55.69056283125908 14.101805828457996 -2.1130236750906044 0 0 0
6860 1 1 0 57.27194816175097 14.096486952042357 -1.6377299243014642 0 0 0
9696 1 2 0 58.4173004500309 15.17696354213901 -2.1247675288601675 0 0 0
9808 1 2 0 63.594000460524086 15.842913194320452 -2.063524147814714 0 0 0
6932 1 1 0 64.73752205067055 14.730990384765898 -1.6099730136319448 0 0 0
9809 1 2 0 66.25828831289195 15.290781152233047 -1.9756159168143028 0 0 0
9732 1 2 0 68.96891115381271 14.985492903821246 -2.026716121965316 0 0 0
6935 1 1 0 67.68093252538516 16.08267227873274 -1.609464483970166 0 0 0
6882 1 1 0 70.19919124831134 13.822748294366539 -1.634330973904791 0 0 0
9731 1 2 0 71.73629516958663 14.46833517978589 -2.0768235145194205 0 0 0
6884 1 1 0 73.23813065701775 15.160746404306112 -1.64478404164767 0 0 0
9733 1 2 0 74.59399655816593 14.276314560223048 -2.1090559611715585 0 0 0
9734 1 2 0 77.38515027744431 14.371501692046731 -2.0214294608557672 0 0 0
6936 1 1 0 78.91184403370974 14.837335548366639 -1.6206520942700098 0 0 0
9757 1 2 0 80.15410443992515 13.916357045447858 -2.14271920418644 0 0 0
9758 1 2 0 85.10265317653612 14.874059058937664 -2.1372988452504442 0 0 0
6907 1 1 0 90.70367798685032 14.626475889109358 -1.631929198613237 0 0 0
9773 1 2 0 89.5867004448851 15.739497927674112 -2.1042572003560878 0 0 0
9772 1 2 0 92.24052404177425 15.030420088205373 -2.1297618280965 0 0 0
6908 1 1 0 93.82205514877369 15.097864738374499 -1.6149520041010015 0 0 0
9177 1 2 0 98.973022297938 14.251875207247856 -2.0101409466466476 0 0 0
6525 1 1 0 99.13118132694835 15.80984941606877 -1.5974489978022322 0 0 0
6564 1 1 0 7.458612108459464 16.306452333514358 -1.6258449765239156 0 0 0
9237 1 2 0 6.859935854199232 17.702549843480696 -2.1864150408142478 0 0 0
9238 1 2 0 9.032230569312953 16.277618317810653 -2.108657230803626 0 0 0
6585 1 1 0 10.56286486485345 16.59765130725705 -1.6046504571247022 0 0 0
9270 1 2 0 11.465384115224264 17.872051775353604 -2.0915657502608016 0 0 0
9829 1 2 0 14.218555937568869 18.254955386629454 -2.1267232089604087 0 0 0
6947 1 1 0 15.694012290444215 17.78375507705174 -1.6179552760888933 0 0 0
9619 1 2 0 15.943755075866054 16.23692863799027 -2.0120519946137962 0 0 0
6949 1 1 0 20.9848676702359 17.918794054225273 -1.620662888373766 0 0 0
9632 1 2 0 20.780984567601504 16.369469628258106 -2.07069665766715 0 0 0
6951 1 1 0 26.431422633687195 18.03066199299534 -1.6285992338674748 0 0 0
9642 1 2 0 26.346890135089215 16.501044701533353 -2.167220627378905 0 0 0
9841 1 2 0 30.51980426091371 18.183359260122145 -2.0919164829000727 0 0 0
6955 1 1 0 31.915409519952966 17.46261344970236 -1.6249448625015002 0 0 0
9842 1 2 0 33.17225057290497 18.389482666143252 -2.1383791321179464 0 0 0
9844 1 2 0 35.83104717855564 18.461916931612187 -2.1664078350421483 0 0 0
6957 1 1 0 37.2293941928466 17.81370438488695 -1.6184953157835884 0 0 0
9666 1 2 0 37.3812317051108 16.23202798669926 -2.0581595610417676 0 0 0
9850 1 2 0 40.88692096910968 18.47599026568384 -2.1012756487170297 0 0 0
6960 1 1 0 41.76970654067709 17.176109011773292 -1.6292122991091147 0 0 0
9849 1 2 0 43.2671027750453 17.529249631947405 -2.1796455292301724 0 0 0
6961 1 1 0 44.72363696631831 17.97722877641912 -1.6170479996805462 0 0 0
9847 1 2 0 45.87669631452439 16.9043993597438 -2.003603658322701 0 0 0
6959 1 1 0 47.37221801517247 16.426893888023102 -1.6064304500878381 0 0 0
9848 1 2 0 48.49860764799394 17.51439743750849 -1.9929847042220927 0 0 0
9855 1 2 0 53.153571780423334 18.32324898358 -2.174926160835128 0 0 0
6964 1 1 0 54.29451539796274 17.332116558209947 -1.6120120906459623 0 0 0
9856 1 2 0 55.8097299766114 17.685899650436724 -2.0458193228973864 0 0 0
6967 1 1 0 57.177232575646386 18.431463389708334 -1.6128781638885576 0 0 0
9811 1 2 0 58.5182927626227 17.646568090523356 -2.051676155068877 0 0 0
6933 1 1 0 59.43784828018786 16.37710037389789 -1.6296158244588603 0 0 0
9810 1 2 0 60.98562579525581 16.610378535719548 -2.157216977206337 0 0 0
6934 1 1 0 62.50523850694246 17.008247221109848 -1.6194248512008385 0 0 0
9812 1 2 0 62.99418024277371 18.542439954001726 -2.0146418528989143 0 0 0
9813 1 2 0 67.47871606122175 17.761503072237023 -2.0147238442912117 0 0 0
9735 1 2 0 73.48992893632533 16.77691246557589 -2.0555083297518224 0 0 0
6971 1 1 0 74.06322421496581 18.30130850220866 -1.6239728300142589 0 0 0
9867 1 2 0 75.69134599514337 18.446467878257266 -1.9467559295880124 0 0 0
9814 1 2 0 79.38272858291447 16.303052558505605 -2.1595424823402567 0 0 0
6977 1 1 0 79.9063834602918 17.765161442919023 -1.651388492085661 0 0 0
9877 1 2 0 81.46334774948491 18.09005897527616 -2.1202893654110353 0 0 0
6979 1 1 0 83.02641163931061 18.320650938620233 -1.6178852574741147 0 0 0
9816 1 2 0 84.21691618227901 17.278024813359472 -2.0698727633761007 0 0 0
6937 1 1 0 85.51284703105526 16.37139363138958 -1.6179949888221015 0 0 0
9815 1 2 0 87.03790228923512 16.839797821665474 -2.0447449633433763 0 0 0
6938 1 1 0 88.63154961915043 16.992582104761897 -1.6277402107068952 0 0 0
9817 1 2 0 89.31560827384372 18.400349347390783 -2.146249139761091 0 0 0
9247 1 2 0 94.95038009531906 16.225335139426836 -2.095091698721957 0 0 0
6569 1 1 0 96.28823906720058 17.10858600427726 -1.6472239337591252 0 0 0
9178 1 2 0 97.75179443629294 16.524629044084847 -2.1241078920320535 0 0 0
9175 1 2 0 100.66215601220138 16.18320054015177 -2.0422975248910484 0 0 0
6566 1 1 0 6.080676151012027 19.00215039226141 -1.6435159059453976 0 0 0
9241 1 2 0 6.743775697511293 20.383114440397218 -2.1458331095352228 0 0 0
9831 1 2 0 12.493414643041747 20.270454506726512 -2.1857770441561093 0 0 0
6948 1 1 0 12.748456896766456 18.770109391167264 -1.64012378537258 0 0 0
9830 1 2 0 16.962206463158857 18.635285640561904 -2.182329999209265 0 0 0
6950 1 1 0 18.297850688534684 19.402756930241686 -1.654508864739478 0 0 0
9834 1 2 0 18.240088737994608 20.942976363469423 -2.141541478527051 0 0 0
9832 1 2 0 19.682529842241212 18.72816500746404 -2.157945929646349 0 0 0
9833 1 2 0 22.387814949561566 18.581254889761958 -2.120476767989991 0 0 0
6952 1 1 0 23.66616222452886 19.466098760896756 -1.6328401140572795 0 0 0
9835 1 2 0 25.096338068893555 18.83569483219432 -2.0879707835292813 0 0 0
9836 1 2 0 27.836054236931773 18.684734573456637 -2.13120392643205 0 0 0
6956 1 1 0 29.30911433222791 19.18313175069689 -1.6385208760375243 0 0 0
9843 1 2 0 29.533583009681454 20.722171001570757 -2.12799125554215 0 0 0
6958 1 1 0 34.48754988137897 19.229676216001366 -1.639972204039704 0 0 0
9846 1 2 0 34.50681395629774 20.798951477377788 -2.1049092646213543 0 0 0
9845 1 2 0 38.408488226688135 18.875010477883432 -2.050648820061538 0 0 0
6989 1 1 0 39.81206781220766 19.620730430258337 -1.6298730249027593 0 0 0
9851 1 2 0 45.31357123408215 19.424246019880414 -2.0598356776900713 0 0 0
6994 1 1 0 46.43336991454293 20.515386526392 -1.632634144411535 0 0 0
9858 1 2 0 47.940286340825125 20.04475458411062 -2.018288394608 0 0 0
6965 1 1 0 49.07840457668571 18.96808609483228 -1.607606623034647 0 0 0
9857 1 2 0 50.56613790399804 19.188416698260752 -2.1989256688022687 0 0 0
6966 1 1 0 52.06642599394515 19.385281896526582 -1.6333099598593088 0 0 0
9859 1 2 0 52.6369844105979 20.826697167832364 -2.045132668689108 0 0 0
9860 1 2 0 57.08875484197164 19.95009596501208 -2.1407433579067723 0 0 0
6996 1 1 0 63.747336557955784 19.97033828231664 -1.615529764674088 0 0 0
9869 1 2 0 65.39873375369089 19.80983745489656 -2.007398444659231 0 0 0
6972 1 1 0 67.00921220968063 19.38540537133861 -1.632172427388003 0 0 0
9868 1 2 0 68.07105062513504 20.65733549892287 -2.09980762822283 0 0 0
9866 1 2 0 73.16559359007385 19.644835359635422 -2.1240884298025136 0 0 0
9878 1 2 0 76.97025967602232 20.753095090412977 -2.105315279444726 0 0 0
6978 1 1 0 77.12343666345862 19.211604305870985 -1.611854554595839 0 0 0
9876 1 2 0 78.59598122177842 18.65494954417178 -2.1318848499113754 0 0 0
9879 1 2 0 83.73306673828154 19.69263653144824 -2.1442441383383537 0 0 0
9881 1 2 0 88.79312756126241 20.962599229878975 -2.1176053125410195 0 0 0
6980 1 1 0 89.92833440764427 19.848981185436735 -1.6466115459446662 0 0 0
9880 1 2 0 91.52675769808522 20.085507591853986 -2.0836328633983534 0 0 0
6981 1 1 0 93.02209986951011 20.694822278277048 -1.6268451842948257 0 0 0
9248 1 2 0 94.61269295017924 20.332804574960516 -2.0246695426181613 0 0 0
6570 1 1 0 96.25021102374609 20.24006661601775 -1.6200967147214203 0 0 0
9246 1 2 0 96.34957464194447 18.675162249969734 -2.1587991744231565 0 0 0
6611 1 1 0 7.199889973827751 21.82924109137963 -1.6109620051736757 0 0 0
9307 1 2 0 6.281821572266087 23.07889520742392 -2.0592555933156462 0 0 0
9309 1 2 0 8.620720758821472 22.35909725223985 -2.1417042971341815 0 0 0
6653 1 1 0 9.798137796587252 23.33108256311367 -1.6312357115820693 0 0 0
9375 1 2 0 11.151381240175793 22.642488186825165 -2.1585939445814155 0 0 0
7018 1 1 0 12.400537145570059 21.78027468342337 -1.6282001180772954 0 0 0
9938 1 2 0 13.706985556062167 22.568805364672937 -2.110101222783748 0 0 0
9940 1 2 0 16.27551323352198 22.704163517354882 -2.0498238947172993 0 0 0
7020 1 1 0 17.791549126198483 22.39876092191861 -1.6124975806756918 0 0 0
7023 1 1 0 23.917796917310874 22.512607527040117 -1.6170278398820548 0 0 0
9837 1 2 0 23.60393685990347 21.009887376872655 -2.154225281692992 0 0 0
9945 1 2 0 25.424869581948695 22.925656688724825 -2.0339469220993314 0 0 0
9950 1 2 0 28.053508016047672 22.96536284535088 -2.168092502794284 0 0 0
7027 1 1 0 29.417116226828526 22.267671540100498 -1.6350569350057103 0 0 0
9951 1 2 0 30.656172507439095 23.193962906883915 -2.11555135228713 0 0 0
9953 1 2 0 33.258420241709175 23.188861272680064 -2.1575041531947785 0 0 0
7029 1 1 0 34.561258500820465 22.364923108199537 -1.639162895505364 0 0 0
9954 1 2 0 35.85428602354759 23.212160943593314 -2.1646642681891017 0 0 0
9956 1 2 0 38.45080013785037 23.24012247543794 -2.059898996749108 0 0 0
7031 1 1 0 39.94725619179261 22.774704923750694 -1.6210496071615996 0 0 0
9894 1 2 0 40.06001032847039 21.18976303024624 -2.1383019388791107 0 0 0
9902 1 2 0 46.11008160546172 22.010200105097077 -2.165056404906363 0 0 0
9967 1 2 0 52.98870525650943 23.341588229591675 -2.186048168173178 0 0 0
7038 1 1 0 53.65570872580109 21.99352578192696 -1.61991118667572 0 0 0
9906 1 2 0 55.15773327774195 21.75238863030253 -2.143323429662378 0 0 0
6997 1 1 0 56.65544232049233 21.420035082753778 -1.6449654478232534 0 0 0
9905 1 2 0 57.7183726877736 22.50475755594312 -2.1871463378117992 0 0 0
9907 1 2 0 60.25034891022834 23.13505780307181 -2.0777935399340897 0 0 0
6998 1 1 0 61.78126772420057 22.57570741047179 -1.6156370910318871 0 0 0
9904 1 2 0 62.726041061653156 21.24798138490745 -2.1104034958757762 0 0 0
6974 1 1 0 69.22934465126646 21.83775891440367 -1.6329064293209428 0 0 0
9870 1 2 0 70.75121184063354 21.25999170326058 -2.029776962381452 0 0 0
6973 1 1 0 72.36038789508017 21.048854380347432 -1.6321164059214854 0 0 0
9871 1 2 0 73.13584073584829 22.446873077516088 -2.0746280648887616 0 0 0
9973 1 2 0 75.65635586818595 23.129226787815874 -2.036017161022982 0 0 0
7046 1 1 0 76.98649011391413 22.297350976352217 -1.6153140928002054 0 0 0
9979 1 2 0 78.32563338104396 23.032077228314254 -2.1655635703174125 0 0 0
9920 1 2 0 83.342739561032 22.156250447640844 -2.1660381608303214 0 0 0
7006 1 1 0 84.43407082971841 21.069719597204305 -1.6416415335908998 0 0 0
9919 1 2 0 85.9819840687139 21.310902441827004 -2.1307328692839773 0 0 0
7007 1 1 0 87.46764632383241 21.824227785390807 -1.635471158407704 0 0 0
9921 1 2 0 87.62659689329618 23.385219085664488 -2.0807626047966257 0 0 0
9882 1 2 0 93.17815983740232 22.2243726376242 -2.172382755772876 0 0 0
9244 1 2 0 97.53166647390485 21.296194896602117 -2.048409510659021 0 0 0
6568 1 1 0 98.88231263323826 22.292698081494425 -1.6282886041622036 0 0 0
9242 1 2 0 100.51654043506115 21.902178812645804 -2.0737928211504286 0 0 0
9308 1 2 0 5.533901619063465 25.7020435785308 -2.116883834096446 0 0 0
9374 1 2 0 9.533171760441821 24.859770457631047 -2.100866034320033 0 0 0
9942 1 2 0 14.766690587120362 24.973557451877685 -2.1856586431067586 0 0 0
7021 1 1 0 14.932545648435905 23.46844164559547 -1.6152151444957044 0 0 0
9941 1 2 0 18.631429878751067 23.67294403614891 -2.125445436618844 0 0 0
7024 1 1 0 19.21981920049834 25.09357419137567 -1.6372100151451672 0 0 0
9946 1 2 0 20.72808962379018 25.140782132737655 -2.1949441904467495 0 0 0
7025 1 1 0 22.23617257337577 25.079503811233668 -1.6359788785605407 0 0 0
9944 1 2 0 22.94123282107235 23.70339239293119 -2.1163598769264236 0 0 0
7028 1 1 0 26.748732457131137 23.75683131190661 -1.6270226452335472 0 0 0
9952 1 2 0 26.720189384952167 25.287555509825697 -2.1690205203848154 0 0 0
7030 1 1 0 31.963781907341676 24.017097573884204 -1.6257235104183811 0 0 0
9955 1 2 0 31.947022659041846 25.573131855392393 -2.106075219628648 0 0 0
7032 1 1 0 37.131370169787736 24.082167018832493 -1.6413715039385839 0 0 0
9958 1 2 0 37.1896753904552 25.637016130428346 -2.158102473912085 0 0 0
9957 1 2 0 40.799904674561425 24.126209094358124 -2.099214385256567 0 0 0
7035 1 1 0 41.40398618201826 25.60824080441654 -1.6360261275456722 0 0 0
9961 1 2 0 42.944466567412825 25.734364815168732 -2.1616877160492582 0 0 0
9959 1 2 0 45.34147310826938 24.746048888686854 -2.140906416341726 0 0 0
7033 1 1 0 46.291805425617554 23.52887033732941 -1.6267493891258336 0 0 0
9960 1 2 0 47.81407097930424 23.868303009734603 -2.0406605826313102 0 0 0
7058 1 1 0 49.055828647700594 24.786525937749783 -1.6155433399890295 0 0 0
9997 1 2 0 50.52241898366598 24.34994021924962 -2.1147871797279167 0 0 0
7061 1 1 0 52.04636882986551 24.513750360528892 -1.626926656322524 0 0 0
9909 1 2 0 57.79446964507617 24.998576031330604 -2.0597878208961147 0 0 0
6999 1 1 0 58.71486896287275 23.66074559320885 -1.6272090441582645 0 0 0
9908 1 2 0 62.65908395485729 23.898251619480344 -2.005625942943774 0 0 0
7064 1 1 0 63.028589202057994 25.43367693649816 -1.6237147555734408 0 0 0
10005 1 2 0 64.5667124763839 25.73898127926888 -2.0982827367832546 0 0 0
9975 1 2 0 67.34821664125684 25.73198793506182 -2.1536207634310776 0 0 0
9872 1 2 0 69.07824510889054 23.49682368669057 -2.0405750681747197 0 0 0
7043 1 1 0 68.81003412669257 25.13513440448278 -1.623117972455335 0 0 0
7042 1 1 0 74.17225724195137 23.650345789585053 -1.6085540239196305 0 0 0
9972 1 2 0 74.01625056842315 25.221869783230865 -2.107358564688955 0 0 0
7048 1 1 0 79.46838911803472 24.065450167577957 -1.6557598692548474 0 0 0
9982 1 2 0 78.93375209979693 25.526201737458386 -2.1423595889765057 0 0 0
9980 1 2 0 80.97798046400561 23.696393833541574 -2.158383550940945 0 0 0
7047 1 1 0 82.4895920724018 23.41610312338257 -1.6100393663691785 0 0 0
9981 1 2 0 83.55931776812056 24.587739592690355 -1.9456954743097383 0 0 0
7074 1 1 0 88.16664651434974 24.84203906350691 -1.6271974646172278 0 0 0
7077 1 1 0 91.02855409090985 25.73942899309067 -1.58147628309972 0 0 0
10021 1 2 0 89.62198778154051 25.2549226606177 -2.1852487882481983 0 0 0
7051 1 1 0 93.32258245002761 23.71956708170068 -1.5775562670133325 0 0 0
9987 1 2 0 91.92141715003798 24.439005998984683 -1.8710850767030291 0 0 0
9986 1 2 0 94.36876857715303 24.848525812797387 -2.079018307121585 0 0 0