LAMMPS data file via write_data, version 23 Jun 2022, timestep = 7306

15612 atoms
2 atom types

5.541526177330886 199.8838124043561 xlo xhi
4.315564741964421 172.5453007242671 ylo yhi
-100 100 zlo zhi

Masses

1 28.085
2 15.999

Atoms # full

6624 1 1 0 12.281326412486191 5.925573384943151 -1.6454603189403936 0 0 0
9311 1 2 0 11.725356943184076 4.470618652942308 -2.1643204058202445 0 0 0
9312 1 2 0 13.893191568685118 6.102800846241003 -2.087927384117192 0 0 0
6813 1 1 0 15.470093610821449 6.485751116966136 -1.6115121332967413 0 0 0
9597 1 2 0 17.002061472510437 5.946388903524926 -2.103324462789119 0 0 0
6819 1 1 0 18.59218724112382 5.558234077049019 -1.6290915344600783 0 0 0
9603 1 2 0 19.883373206629017 6.650973887041849 -1.9899975973929565 0 0 0
9608 1 2 0 24.31510820440621 5.14182122879756 -2.0237722581063498 0 0 0
6834 1 1 0 32.59832352174187 6.357493447866387 -1.6233940674387575 0 0 0
9631 1 2 0 32.38309359217562 4.802660260230216 -2.1060348121628727 0 1 0
9632 1 2 0 34.23758763454991 6.301197208160171 -1.9895240729254633 0 0 0
6840 1 1 0 35.67184201508357 5.532325027914982 -1.6036703565589543 0 0 0
9641 1 2 0 37.17043818150688 5.991188975006871 -2.142641214980883 0 0 0
6841 1 1 0 38.73161333585446 6.177779390602391 -1.6243647562284105 0 0 0
9644 1 2 0 39.95609469941877 5.16985134704618 -2.0858042405065196 0 0 0
6847 1 1 0 41.35903478726328 4.418536221855194 -1.6331100414999402 0 0 0
9652 1 2 0 42.83937104533294 4.981452689141767 -2.125617774420715 0 0 0
6849 1 1 0 44.401911259439046 5.27011666718016 -1.651453023073279 0 0 0
9664 1 2 0 51.057107333238505 6.105387149528273 -2.09267269277255 0 0 0
6859 1 1 0 52.00277446868037 4.817293907664255 -1.6110079830743014 0 0 0
9674 1 2 0 53.55381994524137 5.023320471678643 -2.1076305138899207 0 0 0
6864 1 1 0 55.08593593101409 4.985926395892082 -1.5809189122951277 0 0 0
9680 1 2 0 55.6770605532545 6.42717930148992 -1.9752000306782522 0 0 0
9688 1 2 0 58.89327195825734 4.488003289268227 -2.127385548870806 0 0 0
6868 1 1 0 59.85567437854539 5.744782796163987 -1.651012134700679 0 0 0
9689 1 2 0 61.41484173217174 5.65737791536019 -2.1597513149295398 0 0 0
6871 1 1 0 62.96672561448063 5.800372892546536 -1.6344081526629965 0 0 0
9694 1 2 0 63.782476915393836 4.436553323411912 -2.074476577477628 0 1 0
9698 1 2 0 67.89921968471558 5.43521807867853 -2.0407788305414365 0 0 0
9711 1 2 0 72.52785409593008 5.447887735731251 -1.9877770755632769 0 0 0
6887 1 1 0 78.39670949691089 6.246325932982985 -1.6241283993145563 0 0 0
9720 1 2 0 77.5880510135987 4.874353775688674 -2.072186181146036 0 0 0
9719 1 2 0 80.03947834843609 6.260344360372705 -2.077012972394993 0 0 0
6889 1 1 0 81.69183277444148 6.268357040944253 -1.6404397043511718 0 0 0
9724 1 2 0 82.69810953663276 4.976641728917282 -2.0562933124036995 0 0 0
6901 1 1 0 89.62534691792428 5.993351046039757 -1.6021859474727662 0 0 0
9744 1 2 0 89.3200416906404 4.385618279237117 -2.0761638314257387 0 0 0
6909 1 1 0 92.71362794295365 6.109638673069532 -1.6062813960265834 0 0 0
9745 1 2 0 91.18102837117024 6.0364946500809875 -2.0822869083634687 0 0 0
9757 1 2 0 93.63539634354456 4.900217863802396 -2.150690839493715 0 0 0
6915 1 1 0 97.71584886467109 4.803156726595194 -1.588012306878742 0 0 0
9766 1 2 0 96.27595597144098 4.3983826511872595 -2.1842249328140033 0 1 0
9763 1 2 0 98.05459574506884 6.333484242324917 -1.9264410618500165 0 0 0
9761 1 2 0 101.28357480260776 4.932410493290759 -2.157139079072988 0 0 0
6911 1 1 0 101.70238583699279 6.423604874582431 -1.6492953727796638 0 0 0
9302 1 2 0 6.102124320795558 8.103957287058082 -2.015397234446633 0 0 0
6623 1 1 0 9.99205046109125 8.156340491046935 -1.5947892533195223 0 0 0
9307 1 2 0 8.542400813579244 8.781701992066035 -2.1335224663872197 0 0 0
9309 1 2 0 11.047712680808234 6.958822570332749 -2.0964448983566353 0 0 0
9595 1 2 0 15.48504872924461 8.063960353041102 -2.0400520573384076 0 0 0
6817 1 1 0 21.16231671213987 7.7579381627491815 -1.6274830593718368 0 0 0
9604 1 2 0 22.75653659239834 7.315155543103957 -2.0248816016062596 0 0 0
6820 1 1 0 24.326572072722453 6.794497846909858 -1.6277771675095487 0 0 0
9607 1 2 0 25.69759819464633 7.776609462219933 -2.0887867866519345 0 0 0
6821 1 1 0 27.010534576059214 8.835713092992147 -1.6407440061999288 0 0 0
9610 1 2 0 28.638952849967378 8.440145728509991 -1.9693589848720856 0 0 0
6831 1 1 0 30.295042784664716 8.626498575686448 -1.6294932588807505 0 0 0
9627 1 2 0 31.441344661910414 7.4762777098857365 -2.1311902558669873 0 0 0
9643 1 2 0 39.22354744616414 7.656873178219736 -2.082094963705644 0 0 0
9654 1 2 0 44.849095188981636 6.783553835216299 -2.1140373326809443 0 0 0
6848 1 1 0 45.068479977385245 8.340591342647983 -1.6304211566090911 0 0 0
9656 1 2 0 46.51029848751606 8.985784344496762 -2.1064124794261003 0 0 0
9662 1 2 0 49.16478793170875 8.391348527277858 -2.125366052856003 0 0 0
6853 1 1 0 50.550549797374124 7.624728478207744 -1.6229011025465319 0 0 0
9663 1 2 0 51.68577752788599 8.728691993036488 -2.0257426721439535 0 0 0
9667 1 2 0 54.357564475696506 8.731850181706 -2.1802472141750795 0 0 0
6863 1 1 0 55.664673831638 7.983249404633559 -1.5942019887714094 0 0 0
9681 1 2 0 57.08621287492056 8.60786407228993 -1.9979446422871214 0 0 0
6865 1 1 0 58.65606719350697 8.628680643999441 -1.6079984509412972 0 0 0
9684 1 2 0 59.33108274954706 7.229326227049507 -2.123439351971042 0 0 0
9691 1 2 0 63.64660942200298 7.248706611041244 -2.060313936283674 0 0 0
6870 1 1 0 64.73500567169653 8.432187027893354 -1.6376743534547544 0 0 0
9693 1 2 0 66.1765447603592 7.759927699718581 -2.1086262574548917 0 0 0
6874 1 1 0 67.56008437872354 6.995288433871393 -1.6098077477336372 0 0 0
9699 1 2 0 68.84486103012942 7.901955859322952 -2.0526519196619732 0 0 0
6878 1 1 0 70.18765175421555 8.728096830653747 -1.629265147657521 0 0 0
9706 1 2 0 71.56402797060994 7.968203279269341 -2.128662235246197 0 0 0
6882 1 1 0 72.8136749618808 7.014733335053452 -1.6156017428381904 0 0 0
9712 1 2 0 74.34124211594246 7.405443642648881 -2.1129185528473555 0 0 0
6884 1 1 0 75.77654463473533 8.087985047276856 -1.6407866600534244 0 0 0
9715 1 2 0 77.21685707262108 7.361062218489512 -2.0686399378897686 0 0 0
9721 1 2 0 82.56113683932465 7.61547294258445 -2.127952360436458 0 0 0
6888 1 1 0 83.21680803423195 9.071423752437132 -1.6285190058650256 0 0 0
9734 1 2 0 89.23039588260077 7.5842087145527115 -2.0557781338237646 0 0 0
6908 1 1 0 94.65493871154473 8.448642103998933 -1.63485481767515 0 0 0
9755 1 2 0 93.43919960842862 7.48055385928406 -2.038755925931939 0 0 0
6913 1 1 0 97.58812902166964 7.82825762265167 -1.5882425684785175 0 0 0
9756 1 2 0 96.11133975660718 8.037138437454285 -2.1915250516768667 0 0 0
9760 1 2 0 98.73852959568843 8.895209900226781 -1.9177883808697591 0 0 0
9758 1 2 0 100.9389664418795 7.768837167675642 -2.177695725268792 0 0 0
6621 1 1 0 7.0667830040419295 9.360037563253732 -1.61666020254339 0 0 0
9306 1 2 0 6.338705318408096 10.785114532909537 -2.091357236253007 0 0 0
6643 1 1 0 12.138999415667168 10.400434746406479 -1.6050096647163279 0 0 0
9310 1 2 0 11.020144734222413 9.328652518790316 -2.03739212749542 0 0 0
9342 1 2 0 13.63085127487847 10.024817766710074 -2.1252005212602483 0 0 0
6812 1 1 0 15.119581772705933 9.591395384116495 -1.6290211461558957 0 0 0
9596 1 2 0 16.271771944842268 10.613855461556625 -2.1663074606784734 0 0 0
9599 1 2 0 18.924123153995296 10.983736598542338 -1.9466576025986826 0 0 0
6818 1 1 0 20.523874408657914 10.956454201752877 -1.6039227752668912 0 0 0
9602 1 2 0 20.958734142595986 9.387047155694525 -2.0908109231440344 0 0 0
9609 1 2 0 26.791972523033003 10.454604945025402 -2.0722101708042437 0 0 0
9626 1 2 0 30.829215035354387 10.138572320847064 -2.0837327829437604 0 0 0
6843 1 1 0 37.17646204512805 11.212594910545262 -1.5923002780092688 0 0 0
9645 1 2 0 38.23675996975352 10.086444298040865 -2.1468913345130485 0 0 0
6842 1 1 0 39.51184566075815 9.185613265914435 -1.6235518409933751 0 0 0
9646 1 2 0 41.02439277679725 9.645900371921611 -2.071391937465097 0 0 0
6850 1 1 0 42.51190462805277 10.19016000396318 -1.6297319742584713 0 0 0
9655 1 2 0 43.770244753458826 9.237044811480615 -2.10167382425983 0 0 0
6854 1 1 0 48.01139574269251 9.485581968057815 -1.6363089290869546 0 0 0
9665 1 2 0 48.30453162939242 11.063398917372107 -2.065846634478641 0 0 0
6855 1 1 0 53.048389723407794 9.507014747187363 -1.6210841816085537 0 0 0
9666 1 2 0 53.15188159773127 11.04257794616977 -2.121634884068797 0 0 0
9683 1 2 0 59.04437038602736 10.12586863419563 -2.1371115059954455 0 0 0
9692 1 2 0 64.4876041177072 10.034258822183025 -2.100079014604043 0 0 0
9705 1 2 0 70.0025276991626 10.272537212852297 -2.15288542304236 0 0 0
6885 1 1 0 75.54460818240166 11.216660131840415 -1.6331971042924631 0 0 0
9714 1 2 0 75.66599506545718 9.655101394543172 -2.128921781875951 0 0 0
9722 1 2 0 82.0269945463837 10.121210004628898 -2.0569655031414915 0 0 0
6890 1 1 0 81.19242499289297 11.451251927817372 -1.6122215508208448 0 0 0
9723 1 2 0 84.72105823306865 9.668972439606032 -2.0935499275835867 0 0 0
6894 1 1 0 86.1439685728349 10.450190963657658 -1.6362104794737875 0 0 0
9731 1 2 0 87.55581280300478 9.716381025929909 -2.125048380721476 0 0 0
6895 1 1 0 89.07055802216482 9.215899713858573 -1.6446653786448757 0 0 0
9733 1 2 0 90.24230758268132 10.356745900708058 -2.0927589544624547 0 0 0
6907 1 1 0 94.36260709543056 11.455204904584747 -1.6210656985083185 0 0 0
9753 1 2 0 94.49432320029867 9.948526129863609 -2.174309952392971 0 0 0
6910 1 1 0 100.3033801821333 9.156562195145911 -1.6080346913903345 0 0 0
9759 1 2 0 100.57767530576484 10.68762866464841 -2.0769574927514847 0 0 0
9339 1 2 0 9.490181607636469 13.684700690851889 -2.0327907454268996 0 0 0
6644 1 1 0 10.991822437782021 13.206888160278282 -1.6435242647381247 0 0 0
9341 1 2 0 11.492831705456465 11.769069347197211 -2.1740928750221626 0 0 0
9598 1 2 0 17.236727906537947 13.13407664061131 -2.1094670167677245 0 0 0
6814 1 1 0 17.456250503373994 11.593107069827312 -1.6167117045212243 0 0 0
9605 1 2 0 21.00694793620402 12.501488434394036 -2.1133538471224806 0 0 0
9611 1 2 0 25.612633197973906 13.140394752863312 -2.113033026348256 0 0 0
6822 1 1 0 26.78567244298161 12.073269287348827 -1.609898083058339 0 0 0
9612 1 2 0 28.129823004696267 12.939798144149185 -1.9935178973778747 0 0 0
9628 1 2 0 30.60396189333627 12.939763686217242 -2.054199373686073 0 0 0
6832 1 1 0 31.466491858685377 11.600659826642865 -1.6290077091903299 0 0 0
9629 1 2 0 32.98166064956421 11.94897634488672 -2.161408334028102 0 0 0
6844 1 1 0 34.39419280635606 12.603165238762296 -1.6458035380371072 0 0 0
9647 1 2 0 35.65806946342214 11.634490777802133 -2.0640447200225545 0 0 0
9648 1 2 0 37.97588815732998 12.578577078955359 -1.9428793830459357 0 0 0
6929 1 1 0 43.10056596417227 13.246260486445102 -1.6256339607284611 0 0 0
9658 1 2 0 42.71752702044796 11.738316684396185 -2.1429406465993095 0 0 0
9787 1 2 0 44.55759172764188 13.769452452522964 -2.126155316086927 0 0 0
9671 1 2 0 47.15914733716334 13.613747183656729 -2.1644994186156086 0 0 0
6857 1 1 0 48.398668656956104 12.66332140748598 -1.6378114476183174 0 0 0
9670 1 2 0 49.7593050283346 13.4514174211149 -2.134617160642843 0 0 0
9668 1 2 0 52.42238335147565 13.539250344736452 -2.085097808730166 0 0 0
6856 1 1 0 53.59313914385077 12.522215376306374 -1.632814760343301 0 0 0
9669 1 2 0 55.072343786032256 12.944581010789536 -2.1726904150571236 0 0 0
6867 1 1 0 56.502727620968294 13.5225004796237 -1.635219716806306 0 0 0
9685 1 2 0 57.78156094564475 12.614312445494352 -2.1178470476671047 0 0 0
6866 1 1 0 59.03216354592148 11.676863929677925 -1.6128690355716806 0 0 0
9686 1 2 0 60.487610799868904 12.296784594669976 -1.9825136318822667 0 0 0
6873 1 1 0 61.697059547458664 13.325092052068655 -1.607720934096523 0 0 0
9695 1 2 0 63.11011939192037 12.576082103810675 -2.1232414986816424 0 0 0
6872 1 1 0 64.43369537713431 11.65602855878612 -1.6366592949650132 0 0 0
9696 1 2 0 65.83297548181581 12.461305844230973 -2.0455304546703124 0 0 0
6880 1 1 0 67.16409060250496 13.356762900765887 -1.6124190349046925 0 0 0
9707 1 2 0 68.5906521071271 12.640628160754208 -2.047248710148299 0 0 0
6879 1 1 0 69.96460062095427 11.82856324336914 -1.6303601252669253 0 0 0
9708 1 2 0 71.39300007968906 12.477051121484138 -2.1232823741409974 0 0 0
6886 1 1 0 72.89003712267672 12.9446981130844 -1.6306805130522006 0 0 0
9716 1 2 0 74.12915433305874 11.946735757113286 -2.0520069333636775 0 0 0
9717 1 2 0 76.88723713591702 12.009128127427111 -2.1584325819425456 0 0 0
6891 1 1 0 78.32690227688951 12.599716518585364 -1.6339525246165432 0 0 0
9725 1 2 0 79.6462496760605 11.733724028831324 -2.0827206457312473 0 0 0
9726 1 2 0 82.07469199502886 12.733767462001184 -2.07210834104155 0 0 0
9736 1 2 0 84.53176361306939 13.842841537004913 -2.12301841725316 0 0 0
6896 1 1 0 86.07418122641853 13.661437488642854 -1.623614491720626 0 0 0
9732 1 2 0 86.31719682066132 12.06160320025715 -2.0461543762311454 0 0 0
9738 1 2 0 92.80636683020752 11.663623792095994 -2.073305038720845 0 0 0
6897 1 1 0 91.21674624872423 11.649967659125863 -1.6217665899640463 0 0 0
9737 1 2 0 91.21927735997198 13.25274024054016 -2.1257001407895224 0 0 0
6916 1 1 0 97.08592006259377 12.912721725888789 -1.645787139657752 0 0 0
9754 1 2 0 95.64804955456012 12.319375744394367 -2.148704179965415 0 0 0
6912 1 1 0 100.04664458873408 12.155681788045218 -1.611833934604061 0 0 0
9762 1 2 0 98.49420893125725 12.237739951154488 -2.0846930905319287 0 0 0
9391 1 2 0 100.96907201951166 13.467598834670003 -1.8573972446881901 0 0 0
9337 1 2 0 6.93544589555064 15.205856337696934 -2.0993091965622575 0 0 0
6642 1 1 0 8.441949865167663 14.85386799763435 -1.5896807709837932 0 0 0
9340 1 2 0 9.368383410722304 16.11666353283165 -1.9725797799192755 0 0 0
9343 1 2 0 12.165838374321979 14.19441531943346 -2.16773337925115 0 0 0
6816 1 1 0 13.475523653609084 14.957968076245473 -1.6132252795889235 0 0 0
9600 1 2 0 14.917001048250748 14.360106514607615 -2.021972810049687 0 0 0
6815 1 1 0 16.479434525194485 14.491252040131778 -1.6167911775566133 0 0 0
9601 1 2 0 16.805976114152926 16.004936276177684 -2.1338040607579773 0 0 0
9614 1 2 0 20.832547007883026 15.524868310825296 -2.0741964527651477 0 0 0
6823 1 1 0 21.5238211838632 14.04531298756352 -1.6476235873637608 0 0 0
9613 1 2 0 23.087560461424758 14.135698074477784 -2.138896403311646 0 0 0
6824 1 1 0 24.624938651816855 14.382416073351498 -1.6308682003616823 0 0 0
9615 1 2 0 25.012383267297672 15.929747783775403 -2.055676696192081 0 0 0
6833 1 1 0 29.37574454993325 13.939239545652242 -1.596186763001797 0 0 0
9630 1 2 0 29.198234610325247 15.5148649272687 -2.1017620506843215 0 0 0
9649 1 2 0 34.58190026301728 14.199484615552826 -2.042856355249249 0 0 0
6924 1 1 0 35.405556682537906 15.568674582862215 -1.6000272124056956 0 0 0
9776 1 2 0 36.89415207868783 15.067463164095306 -2.012802122903682 0 0 0
6923 1 1 0 38.13985420233173 14.139191418391787 -1.5894254764883282 0 0 0
9777 1 2 0 39.5125244949832 14.734304432862155 -2.183455861664353 0 0 0
6930 1 1 0 40.86716881481985 15.421066920638966 -1.632972007092151 0 0 0
9786 1 2 0 42.08189224578505 14.436714725596516 -2.075789749608317 0 0 0
6936 1 1 0 45.90643539410599 14.542234877779814 -1.6410035946468386 0 0 0
9797 1 2 0 45.86413941902139 16.122869625869406 -2.0985933703056046 0 0 0
6858 1 1 0 51.07034055607569 14.306002536125499 -1.623948039977661 0 0 0
9672 1 2 0 51.34108314065553 15.845391522389685 -2.1212507451522002 0 0 0
9687 1 2 0 56.55856598079895 15.098842336398098 -2.0513444918064594 0 0 0
9697 1 2 0 61.052178093119146 14.793475651903073 -2.090061264137203 0 0 0
6973 1 1 0 60.209837545999775 16.1627987160297 -1.63725275090689 0 0 0
9709 1 2 0 67.15362530947611 14.941592339812798 -2.107684313699452 0 0 0
9718 1 2 0 73.0962982785797 14.484599089348402 -2.146663229520445 0 0 0
6937 1 1 0 73.04650718471063 16.03930327998939 -1.6375151477301078 0 0 0
6943 1 1 0 78.60835066318637 15.735084198091217 -1.6233257660946114 0 0 0
9727 1 2 0 78.57698850772046 14.159546627185533 -2.064618386376335 0 0 0
6905 1 1 0 83.0001877614412 13.977334152390496 -1.6087814442443318 0 0 0
9751 1 2 0 82.3508384395786 15.37160315804257 -2.1024992203838875 0 0 0
9735 1 2 0 86.7929127684582 15.091001138514402 -2.1307567213401017 0 0 0
9741 1 2 0 90.96614676933763 16.07886696793632 -2.131691914453133 0 0 0
6899 1 1 0 91.76458936690308 14.74314808499116 -1.6370620041572717 0 0 0
9742 1 2 0 93.22278649614395 15.385624239745624 -2.0578986226372487 0 0 0
6952 1 1 0 97.29971200702211 15.94252084913587 -1.6350212133917508 0 0 0
9767 1 2 0 97.40730689640321 14.417488689129371 -2.154884707674283 0 0 0
9821 1 2 0 95.80925969821261 16.2344692060874 -2.1756883429749316 0 0 0
6674 1 1 0 102.48274412078725 14.035073785274752 -1.5864228781997307 0 0 0
9390 1 2 0 102.6533336401733 15.624936327232762 -2.0807058650302936 0 0 0
6671 1 1 0 9.717202225141365 17.63961318482701 -1.6232728101447027 0 0 0
9382 1 2 0 8.556020593399834 18.59544282365625 -2.191550775162477 0 0 0
9385 1 2 0 11.197108049962564 18.004146103713467 -2.1430905201628834 0 0 0
6735 1 1 0 12.71184998241181 17.919343020580808 -1.602580296394905 0 0 0
9483 1 2 0 13.37420574298374 16.511288783788203 -2.0076297729152106 0 0 0
6919 1 1 0 17.231835517212385 17.50778132557335 -1.6424563586954266 0 0 0
9771 1 2 0 18.771017882552098 17.39762830169425 -2.1669367628036604 0 0 0
6920 1 1 0 20.276327302969086 17.045969095203787 -1.6233402883878163 0 0 0
9772 1 2 0 20.829918178286565 18.557275156559836 -2.055600535030371 0 0 0
6921 1 1 0 25.571447844140707 17.417825635462382 -1.6139108156052566 0 0 0
9773 1 2 0 27.15626434865477 17.378281936862752 -2.0257372585255626 0 0 0
6922 1 1 0 28.70891003396258 17.0301547648681 -1.623020026938308 0 0 0
9775 1 2 0 29.505375961792407 18.373983045336473 -2.1546354637719167 0 0 0
9778 1 2 0 35.44337635198599 17.1280753151491 -2.151183090877499 0 0 0
6990 1 1 0 35.663099969553414 18.685835135049917 -1.6398325046861868 0 0 0
9788 1 2 0 40.84474655519603 16.96956380330025 -2.1456015135198223 0 0 0
7000 1 1 0 40.81028662048448 18.521208292422706 -1.6259399685088343 0 0 0
7003 1 1 0 46.055800626220744 17.692108262425524 -1.6308968740061953 0 0 0
9899 1 2 0 47.5803567070217 18.105549022663897 -2.061607703457713 0 0 0
9851 1 2 0 50.37049845359112 18.192506409413635 -2.139747148773644 0 0 0
6971 1 1 0 51.70014632905701 17.373170433377783 -1.6303667363489924 0 0 0
9850 1 2 0 53.174020511800585 17.993118639905937 -2.0734189673713486 0 0 0
6972 1 1 0 54.63173604019805 18.677625374850695 -1.6434676810716813 0 0 0
9848 1 2 0 55.940246294623726 17.745306682079878 -2.1299361061462894 0 0 0
6970 1 1 0 57.04814646142525 16.598465205802505 -1.619283571990994 0 0 0
9849 1 2 0 58.63827931213924 16.46420747326755 -2.0919832656900317 0 0 0
9853 1 2 0 60.980684066852696 17.507956431748603 -2.1662664509905043 0 0 0
9857 1 2 0 63.27595467131246 18.676850018877186 -2.1070178105070583 0 0 0
9801 1 2 0 66.01190208200957 17.42785601640574 -2.1326078939808606 0 0 0
6976 1 1 0 64.85899918197099 18.515424615632025 -1.6112875924580212 0 0 0
6938 1 1 0 67.32972459456401 16.523049525828572 -1.6463719095073346 0 0 0
9800 1 2 0 68.82779471637528 17.08874848959682 -2.0993642237882146 0 0 0
6939 1 1 0 70.32915146499849 17.609179566894667 -1.6207684347940534 0 0 0
9798 1 2 0 71.66572432871808 16.786981126176986 -2.145392615643213 0 0 0
9799 1 2 0 74.4547307654296 16.7539898996741 -2.0733564599091783 0 0 0
6944 1 1 0 75.93610676051158 17.29366135128647 -1.633978966739198 0 0 0
9808 1 2 0 77.23098389896438 16.44158831399117 -2.1650576937055956 0 0 0
9809 1 2 0 79.99640749168239 16.51671867570196 -2.03552991021806 0 0 0
6947 1 1 0 81.57611137656393 16.713332282082202 -1.6271187969129035 0 0 0
9814 1 2 0 82.50360753868362 17.958155294413928 -2.173062332170219 0 0 0
6898 1 1 0 87.32764147658432 16.58844408461238 -1.6192696653326675 0 0 0
9740 1 2 0 86.67085206740737 18.061047702555083 -1.9976666873333229 0 0 0
9739 1 2 0 88.79305980700423 17.06699300517597 -2.1693952240378507 0 0 0
6900 1 1 0 90.28230569958285 17.478624711658544 -1.635960884270673 0 0 0
6953 1 1 0 94.32487001288072 16.51361277630025 -1.6066454970998303 0 0 0
9823 1 2 0 94.34410064383445 18.101480220180385 -2.010693037177352 0 0 0
6959 1 1 0 99.40364833339906 18.202008084196514 -1.6153600469273477 0 0 0
9822 1 2 0 98.39182544411386 17.030929212743846 -2.1117644383591965 0 0 0
6675 1 1 0 102.36597064291885 17.218796379437713 -1.654192652316039 0 0 0
9392 1 2 0 100.8876548806147 17.745819945128208 -2.1456118997212976 0 0 0
6669 1 1 0 7.585503560890135 19.728753181402354 -1.597150577390563 0 0 0
9381 1 2 0 6.033529622648031 19.729270210413464 -1.988177856711415 0 0 0
9482 1 2 0 13.740170373191784 19.05109069586198 -2.0640730300260315 0 0 0
6736 1 1 0 15.11242103908351 19.78187731566343 -1.6147205053113365 0 0 0
9485 1 2 0 16.32167575318841 18.78875448159944 -2.126996045749975 0 0 0
6962 1 1 0 20.937407728772925 20.161843288679176 -1.6205038340839981 0 0 0
9836 1 2 0 22.500607494260564 20.461742397130006 -2.0298080339013946 0 0 0
6963 1 1 0 24.074955490369412 20.203238057378417 -1.6302992429777263 0 0 0
9774 1 2 0 24.768517377882684 18.778875311278142 -2.1488434649046453 0 0 0
6991 1 1 0 30.128195445979394 19.797725466143206 -1.6145084736889415 0 0 0
9880 1 2 0 31.703853750634934 19.83725039892056 -2.0014806233664575 0 0 0
6992 1 1 0 33.15120387808305 20.45559367567576 -1.6206007095381205 0 0 0
9878 1 2 0 34.375917916686134 19.535896024586112 -2.16379016114001 0 0 0
9879 1 2 0 37.012152116434585 19.53932897349655 -2.0564140669724367 0 0 0
7001 1 1 0 38.33518468781413 20.433858352090958 -1.6242351051263229 0 0 0
9894 1 2 0 39.61242812136671 19.522248656792442 -2.146018581005661 0 0 0
9895 1 2 0 42.26453399448328 19.080697932229814 -2.081922875062044 0 0 0
7004 1 1 0 43.67418451619287 19.746050045180574 -1.6261811369109767 0 0 0
9898 1 2 0 44.93112239829663 18.797566952716448 -2.15438583240744 0 0 0
7005 1 1 0 48.963089086938666 18.856190048117146 -1.6326692077439002 0 0 0
9901 1 2 0 48.927888221192845 20.390061864033115 -2.1642555172628404 0 0 0
9852 1 2 0 54.72886674108299 20.28299313984624 -2.0994136849850857 0 0 0
9859 1 2 0 60.75530516995648 20.203402227558566 -2.0858485016140773 0 0 0
6977 1 1 0 61.69018278751699 18.888935499420658 -1.6439422321715402 0 0 0
9858 1 2 0 65.42168383242709 19.989004676765347 -2.011087873873202 0 0 0
9802 1 2 0 70.58744377612445 19.16265496360465 -2.055213893223296 0 0 0
7010 1 1 0 70.80878632777568 20.715115162950582 -1.6201732361976144 0 0 0
7013 1 1 0 76.21713132411979 20.359752115371244 -1.6239091865178503 0 0 0
9810 1 2 0 76.12683033735769 18.825414368687802 -2.1467821444933755 0 0 0
9819 1 2 0 82.42815469186303 20.471298970595562 -2.060043832319533 0 0 0
6950 1 1 0 83.36893108831978 19.242654512480218 -1.6133791207912576 0 0 0
9818 1 2 0 84.88842456328406 19.664872251311138 -2.079430329120903 0 0 0
6951 1 1 0 86.47646922460382 19.670404368452143 -1.6231187386031591 0 0 0
9820 1 2 0 87.50664052667462 20.923273478137556 -2.111524332516066 0 0 0
9743 1 2 0 90.9404158966651 18.9147243899706 -2.117463892810355 0 0 0
6981 1 1 0 91.80440191234203 20.238629316736592 -1.62667641359955 0 0 0
9863 1 2 0 93.37583248375108 20.192119640595386 -2.069313312149652 0 0 0
6980 1 1 0 94.83491860861587 19.62678598659502 -1.6045708538107548 0 0 0
9864 1 2 0 96.2441512374069 20.329665666417075 -2.1329882972202645 0 0 0
7021 1 1 0 97.7438955804434 20.873482517832002 -1.6308850114802143 0 0 0
9832 1 2 0 98.82524330206473 19.687158185205313 -2.001964845834768 0 0 0
9448 1 2 0 6.803065675020138 23.412191553385437 -1.9479879111280756 0 0 0
9383 1 2 0 8.170940800053772 21.155866613131902 -2.0206013124478517 0 0 0
6713 1 1 0 8.216674474350379 22.700125211872827 -1.5939191354199882 0 0 0
9449 1 2 0 9.635308015596738 23.1974567410358 -2.190832554973731 0 0 0
9480 1 2 0 12.425388935790403 23.186772043411874 -2.1568695910329567 0 0 0
9484 1 2 0 14.55281375372183 21.222241993696333 -2.1687701056186954 0 0 0
6737 1 1 0 13.872438956226722 22.61378268011402 -1.6258606022364313 0 0 0
7029 1 1 0 19.339386560098905 22.927292909367363 -1.6508144905665094 0 0 0
9837 1 2 0 19.85369073917218 21.3784328580793 -2.0399217500593907 0 0 0
9838 1 2 0 24.897686840215773 21.550387884870275 -2.081689291540495 0 0 0
7035 1 1 0 25.769840259547546 22.857889910445582 -1.6232036906051652 0 0 0
9947 1 2 0 27.305954651886243 22.698603603917633 -2.116514117667796 0 0 0
7039 1 1 0 28.852696051963864 22.664975527955903 -1.6326957185008888 0 0 0
9881 1 2 0 29.464592465402326 21.217266793095632 -2.10042540390475 0 0 0
9882 1 2 0 33.275278660929715 21.993628486634933 -2.1380122312560377 0 0 0
7076 1 1 0 33.41364190893865 23.524861231441953 -1.607406281605616 0 0 0
9896 1 2 0 38.33982597322118 22.03885657467703 -2.086117441604986 0 0 0
7078 1 1 0 43.64094949275764 22.902103903040718 -1.6273997179635826 0 0 0
9900 1 2 0 43.500071143220325 21.322687401068414 -2.0792305123217707 0 0 0
10013 1 2 0 45.14516277645523 23.252984735835227 -2.170176095072138 0 0 0
9972 1 2 0 47.91520543582837 22.872387998514785 -2.1265859912131835 0 0 0
7051 1 1 0 49.124242979882744 21.90286112683866 -1.6121434058571882 0 0 0
9971 1 2 0 50.66072938671148 22.330332880634806 -1.9433169814847144 0 0 0
7052 1 1 0 51.90030602292054 23.333892938996883 -1.5960757052617072 0 0 0
9969 1 2 0 53.36060784459335 22.708179380061797 -2.076702116668531 0 0 0
7050 1 1 0 54.7411993564476 21.891015445543548 -1.6347510379449275 0 0 0
9970 1 2 0 56.08661932642383 22.75949978977007 -2.0939987276134073 0 0 0
9974 1 2 0 58.78379937698619 22.572213566644166 -2.122444679972591 0 0 0
7054 1 1 0 57.487026449032335 23.536289318128127 -1.6330468355342325 0 0 0
7053 1 1 0 60.11545876570835 21.68029563719548 -1.604681118545326 0 0 0
9975 1 2 0 61.41380493045266 22.573008675000967 -2.0233116515086333 0 0 0
7056 1 1 0 62.84157500625084 23.223516382527396 -1.6183508043932608 0 0 0
9911 1 2 0 64.14386664849638 22.395914599293885 -2.1563199058947173 0 0 0
7011 1 1 0 65.44357577871912 21.560428011218395 -1.6172943032579763 0 0 0
9910 1 2 0 66.8712678452957 22.15738545245239 -2.1019229000382893 0 0 0
7012 1 1 0 68.36494463592395 22.577084232885372 -1.6301165722772444 0 0 0
9908 1 2 0 69.53222401412096 21.576235386995204 -2.127111577593458 0 0 0
9909 1 2 0 72.19894828090442 21.365861830383672 -2.174184954442254 0 0 0
9913 1 2 0 74.86584318046418 21.143822647159453 -2.0672638164083144 0 0 0
7014 1 1 0 73.58070938948063 22.03379194883709 -1.6273296215319355 0 0 0
9914 1 2 0 77.54104071682457 21.147835927222054 -2.150862144647215 0 0 0
7016 1 1 0 78.72898375684923 22.11940554062208 -1.6191102235406838 0 0 0
9916 1 2 0 80.22535360537994 21.844899604113664 -2.1661255503576213 0 0 0
7015 1 1 0 81.7474275479475 21.85455446344545 -1.6199661432427441 0 0 0
9917 1 2 0 82.65869082370527 23.085136053129872 -2.1408444148626398 0 0 0
7059 1 1 0 88.19874009422438 22.389745252858372 -1.625545805945886 0 0 0
9983 1 2 0 89.69918647993201 23.04551538967489 -1.9892465484333341 0 0 0
9865 1 2 0 91.53998764108592 21.77006653982217 -2.1612206680783506 0 0 0
7062 1 1 0 91.31360118478439 23.315090023494367 -1.6139827923748489 0 0 0
9925 1 2 0 98.35778963117862 22.352432484573217 -2.122255116953918 0 0 0
6734 1 1 0 11.019522204250896 23.85890821964517 -1.647100531844223 0 0 0
9481 1 2 0 10.49913918467755 25.334563807092938 -2.1396543557042937 0 0 0
9486 1 2 0 15.09536254589441 23.578243412788183 -2.0939721864081617 0 0 0
7030 1 1 0 16.457169805748705 24.337142236226704 -1.6171217532247146 0 0 0
9939 1 2 0 15.952807741320408 25.86326383217933 -2.044515700274186 0 0 0
9937 1 2 0 17.872531703823103 23.598283899376085 -2.1378696729868065 0 0 0
7036 1 1 0 21.580742246428606 25.08892629898848 -1.6203536524957851 0 0 0
9938 1 2 0 20.584373152978046 23.893091197183367 -2.1399773499404193 0 0 0
9948 1 2 0 23.113187645287205 25.412798213280688 -2.118450620886956 0 0 0
7037 1 1 0 24.652956963672025 25.739273985929294 -1.6334272680028519 0 0 0
9946 1 2 0 25.310580847387435 24.333255143533506 -2.1647831929220205 0 0 0
9952 1 2 0 29.65629189283411 24.004587310794474 -2.1440047231923227 0 0 0
7112 1 1 0 30.73587603868973 25.127218059265832 -1.6208224892356775 0 0 0
10010 1 2 0 32.17698006883025 24.488673886874025 -2.0256683918968643 0 0 0
10009 1 2 0 34.78780787812258 24.252559896549293 -2.0555132031040992 0 0 0
7077 1 1 0 35.87031451708956 25.38599623983301 -1.6162407530030563 0 0 0
10007 1 2 0 37.27953400394395 24.66276314800757 -2.115958404485863 0 0 0
7075 1 1 0 38.50647584361398 23.64367736296436 -1.6512891353906678 0 0 0
10008 1 2 0 39.91623152691185 24.358530437992695 -2.1475097635697487 0 0 0
7079 1 1 0 41.30476827133778 25.100924322141655 -1.6218617213239441 0 0 0
10012 1 2 0 42.53415893030892 24.06326486641156 -2.0560211170437954 0 0 0
7081 1 1 0 46.61063642784706 23.716111303018916 -1.6240402389978394 0 0 0
10016 1 2 0 46.74250449499331 25.27385536020443 -2.028358376117848 0 0 0
9973 1 2 0 51.2055594477009 24.73107073196209 -2.1521816576911603 0 0 0
9976 1 2 0 57.46883279909838 25.17950569265434 -2.0248773224255867 0 0 0
9978 1 2 0 62.76175725269162 24.75033940213555 -2.1611569948384006 0 0 0
9912 1 2 0 68.64717080687461 24.085282159811236 -2.1384306752933724 0 0 0
7086 1 1 0 68.4386966637171 25.59465872817486 -1.6134952687912976 0 0 0
9915 1 2 0 73.81498693062474 23.579202782641865 -2.074199297843004 0 0 0
7085 1 1 0 74.62526165572947 24.907206983993348 -1.6188757858267917 0 0 0
10023 1 2 0 76.1611648521417 24.782008650804894 -2.0820327716742946 0 0 0
7092 1 1 0 77.67809673698275 25.005853517330955 -1.6055375847333162 0 0 0
9918 1 2 0 78.48262883540295 23.670004251344075 -2.000777062807802 0 0 0
9985 1 2 0 82.71447858548416 25.735804575458033 -2.143982407090237 0 0 0
7060 1 1 0 83.43560575182342 24.398929662714785 -1.611789572537511 0 0 0
9984 1 2 0 84.98711959897894 24.496061611307542 -2.0401868494873474 0 0 0
7061 1 1 0 86.4813141157923 24.96357426750646 -1.6206487414995272 0 0 0
9982 1 2 0 87.36786599979627 23.702778450070877 -2.1561194599851676 0 0 0