ITEM: TIMESTEP
1469
ITEM: NUMBER OF ATOMS
15588
ITEM: BOX BOUNDS pp pp pp
0.0000000000000000e+00 2.0403251149941897e+02
0.0000000000000000e+00 1.7783152818206310e+02
-1.0000000000000000e+02 1.0000000000000000e+02
ITEM: ATOMS id type element x y z v_uncoordination
1 1 Si 110.196 38.1884 1.62339 0
2 1 Si 109.922 34.9284 1.62171 0
3 1 Si 107.172 39.3189 1.61826 0
4 1 Si 107.637 32.6164 1.62222 0
5 1 Si 104.376 32.409 1.6306 0
6 1 Si 104.039 38.422 1.6379 0
7 1 Si 102.618 35.3579 1.62314 0
8 1 Si 112.376 40.8578 1.61774 0
9 1 Si 112.259 32.7655 1.5965 0
10 1 Si 115.434 32.2485 1.63855 0
11 1 Si 116.866 35.274 1.61989 0
12 1 Si 117.455 38.6216 1.61432 0
13 1 Si 115.757 41.464 1.63351 0
14 1 Si 107.578 42.4757 1.60379 0
15 1 Si 110.546 43.6909 1.61392 0
16 1 Si 108.893 3.77257 1.60288 0
17 1 Si 111.893 4.47482 1.6296 0
18 1 Si 108.438 6.9772 1.63315 0
19 1 Si 113.133 7.283 1.62551 0
20 1 Si 110.779 9.36151 1.64544 0
21 1 Si 108.762 0.597195 1.6424 0
22 1 Si 113.845 2.15016 1.62691 0
23 1 Si 111.866 177.57 1.63079 0
24 1 Si 105.333 7.4723 1.62357 0
25 1 Si 103.221 4.89635 1.59258 0
26 1 Si 101.416 2.07654 1.63665 0
27 1 Si 102.964 177.046 1.61621 0
28 1 Si 106.293 176.372 1.61246 0
29 1 Si 116.763 3.20136 1.61126 0
30 1 Si 116.179 6.35265 1.63905 0
31 1 Si 118.901 0.845626 1.63941 0
32 1 Si 122.141 2.00944 1.63177 0
33 1 Si 123.549 5.13627 1.63988 0
34 1 Si 121.701 7.92288 1.62165 0
35 1 Si 118.453 8.51343 1.61825 0
36 1 Si 116.902 175.785 1.62802 0
37 1 Si 113.555 174.946 1.62181 0
38 1 Si 124.567 177.642 1.62949 0
39 1 Si 129.134 3.151 1.61245 0
40 1 Si 126.938 5.52884 1.62303 0
41 1 Si 127.787 0.348014 1.62502 0
42 1 Si 123.997 174.5 1.63064 0
43 1 Si 121.457 172.581 1.61621 0
44 1 Si 118.198 172.841 1.62413 0
45 1 Si 132.387 3.45335 1.62706 0
46 1 Si 132.596 6.64327 1.63036 0
47 1 Si 129.415 7.7476 1.63279 0
48 1 Si 130.288 176.208 1.62099 0
49 1 Si 126.454 172.484 1.61363 0
50 1 Si 129.422 173.246 1.62328 0
51 1 Si 134.697 1.10369 1.63572 0
52 1 Si 139.532 3.84367 1.61893 0
53 1 Si 137.924 1.04062 1.62486 0
54 1 Si 138.65 7.04421 1.631 0
55 1 Si 135.509 8.26301 1.6323 0
56 1 Si 133.445 176.023 1.63034 0
57 1 Si 142.46 2.43673 1.62546 0
58 1 Si 143.066 177.127 1.61352 0
59 1 Si 139.955 176.243 1.61999 0
60 1 Si 144.753 4.5191 1.62606 0
61 1 Si 143.981 7.62432 1.64422 0
62 1 Si 141.163 9.19914 1.60696 0
63 1 Si 147.838 3.9918 1.62842 0
64 1 Si 149.845 1.6432 1.61497 0
65 1 Si 148.931 176.391 1.63178 0
66 1 Si 145.844 175.326 1.64441 0
67 1 Si 149.06 6.83978 1.62659 0
68 1 Si 146.794 8.95476 1.61783 0
69 1 Si 152.926 2.57959 1.61076 0
70 1 Si 153.903 177.365 1.63104 0
71 1 Si 151.773 174.857 1.61977 0
72 1 Si 154.199 5.60369 1.63501 0
73 1 Si 151.971 7.93328 1.62612 0
74 1 Si 159.895 4.22701 1.63169 0
75 1 Si 157.264 6.71796 1.63952 0
76 1 Si 159.641 0.880909 1.64586 0
77 1 Si 157.001 176.749 1.64109 0
78 1 Si 163.317 4.62908 1.61897 0
79 1 Si 163.984 7.73888 1.63308 0
80 1 Si 162.268 10.4271 1.6034 0
81 1 Si 159.472 11.9208 1.63107 0
82 1 Si 156.776 10.2569 1.62353 0
83 1 Si 166.234 2.72327 1.61492 0
84 1 Si 165.567 177.417 1.62596 0
85 1 Si 162.359 176.863 1.61264 0
86 1 Si 169.587 3.33571 1.62481 0
87 1 Si 169.681 6.85884 1.63195 0
88 1 Si 167.035 8.60562 1.61035 0
89 1 Si 171.813 0.188693 1.62483 0
90 1 Si 175.4 4.06334 1.61503 0
91 1 Si 174.889 7.27522 1.61391 0
92 1 Si 174.902 0.810554 1.6363 0
93 1 Si 170.719 10.1598 1.62351 0
94 1 Si 173.822 10.4324 1.63586 0
95 1 Si 170.034 172.778 1.63854 0
96 1 Si 172.875 174.121 1.63319 0
97 1 Si 167.555 174.847 1.58472 0
98 1 Si 178.265 2.74296 1.61724 0
99 1 Si 180.277 4.96339 1.64261 0
100 1 Si 180 7.969 1.61695 0
101 1 Si 177.297 9.23365 1.61054 0
102 1 Si 179.6 177.728 1.62343 0
103 1 Si 177.013 175.978 1.61188 0
104 1 Si 183.227 4.50804 1.6209 0
105 1 Si 184.568 1.73763 1.62371 0
106 1 Si 182.753 176.98 1.64352 0
107 1 Si 184.317 7.40739 1.64422 0
108 1 Si 182.46 9.79984 1.59449 0
109 1 Si 187.241 6.72505 1.62412 0
110 1 Si 187.157 3.52819 1.63557 0
111 1 Si 191.05 6.06275 1.61595 0
112 1 Si 190.101 2.59883 1.63464 0
113 1 Si 189.321 9.06766 1.6156 0
114 1 Si 195.97 4.42396 1.62334 0
115 1 Si 195.556 1.26579 1.635 0
116 1 Si 194.118 6.98987 1.62841 0
117 1 Si 193.633 176.532 1.63264 0
118 1 Si 190.291 176.867 1.6506 0
119 1 Si 200.7 2.67999 1.63587 0
120 1 Si 199.034 5.27994 1.61981 0
121 1 Si 198.58 0.392787 1.63354 0
122 1 Si 203.834 2.56414 1.64051 0
123 1 Si 1.52967 5.30034 1.6393 0
124 1 Si 200.702 7.91359 1.64247 0
125 1 Si 203.895 8.09904 1.63994 0
126 1 Si 0.646292 177.338 1.62848 0
127 1 Si 199.249 175.179 1.6166 0
128 1 Si 202.505 174.861 1.62337 0
129 1 Si 4.79069 5.20805 1.63406 0
130 1 Si 5.9556 1.99994 1.64052 0
131 1 Si 3.85815 176.994 1.6203 0
132 1 Si 104.44 10.6612 1.60831 0
133 1 Si 100.806 6.89194 1.63878 0
134 1 Si 101.308 10.0139 1.6304 0
135 1 Si 122.848 10.9869 1.62832 0
136 1 Si 117.29 11.5492 1.61319 0
137 1 Si 120.19 12.8851 1.61825 0
138 1 Si 128.956 10.9817 1.62271 0
139 1 Si 125.867 12.4037 1.62393 0
140 1 Si 134.962 11.498 1.62646 0
141 1 Si 131.848 12.6771 1.61808 0
142 1 Si 166.974 11.7901 1.62565 0
143 1 Si 164.104 13.0396 1.61897 0
144 1 Si 169.604 13.4762 1.62292 0
145 1 Si 177.828 12.2668 1.61035 0
146 1 Si 175.044 13.615 1.62069 0
147 1 Si 180.96 12.4853 1.64468 0
148 1 Si 188.772 12.4479 1.64784 0
149 1 Si 182.82 14.9528 1.61414 0
150 1 Si 186.128 14.6015 1.62196 0
151 1 Si 195.562 9.92524 1.61891 0
152 1 Si 198.766 10.3659 1.62398 0
153 1 Si 1.05771 11.1247 1.64023 0
154 1 Si 4.23647 11.1047 1.62986 0
155 1 Si 6.06242 8.35678 1.61782 0
156 1 Si 111.345 12.6799 1.64245 0
157 1 Si 108.641 14.8592 1.61984 0
158 1 Si 105.37 13.8476 1.64313 0
159 1 Si 114.696 13.5727 1.6275 0
160 1 Si 140.682 12.5368 1.63571 0
161 1 Si 137.404 13.6738 1.60752 0
162 1 Si 148.507 11.5835 1.62426 0
163 1 Si 143.468 14.372 1.61213 0
164 1 Si 146.664 14.0676 1.60574 0
165 1 Si 151.666 11.0951 1.63096 0
166 1 Si 162.798 15.9885 1.61461 0
167 1 Si 159.663 15.1799 1.62041 0
168 1 Si 194.381 12.8416 1.63212 0
169 1 Si 191.495 14.2045 1.63087 0
170 1 Si 200.302 13.1452 1.61032 0
171 1 Si 203.381 13.9365 1.63808 0
172 1 Si 119.892 16.0514 1.61774 0
173 1 Si 116.57 16.3569 1.62221 0
174 1 Si 125.669 15.732 1.61505 0
175 1 Si 122.817 17.5531 1.63498 0
176 1 Si 131.713 15.9275 1.6263 0
177 1 Si 128.498 17.364 1.61906 0
178 1 Si 135.146 16.2199 1.61966 0
179 1 Si 154.357 12.7845 1.63402 0
180 1 Si 169.44 16.9704 1.61702 0
181 1 Si 163.911 19.1632 1.63143 0
182 1 Si 167.245 19.6662 1.62434 0
183 1 Si 175.142 17.0114 1.63795 0
184 1 Si 172.272 18.636 1.60985 0
185 1 Si 197.309 14.046 1.61897 0
186 1 Si 0.407726 17.1217 1.63314 0
187 1 Si 3.74685 17.0405 1.62758 0
188 1 Si 5.44689 14.1041 1.62492 0
189 1 Si 108.994 18.2146 1.6383 0
190 1 Si 106.471 20.4539 1.62816 0
191 1 Si 103.534 19.1781 1.63634 0
192 1 Si 102.816 16.0871 1.61808 0
193 1 Si 115.217 19.2625 1.6283 0
194 1 Si 111.935 19.5925 1.63024 0
195 1 Si 144.756 17.3164 1.6221 0
196 1 Si 136.506 19.0973 1.63022 0
197 1 Si 139.781 19.7064 1.59087 0
198 1 Si 143.108 19.9782 1.62264 0
199 1 Si 147.97 16.9662 1.60121 0
200 1 Si 154.06 16.2294 1.62649 0
201 1 Si 151.063 18.1533 1.65117 0
202 1 Si 157.232 17.378 1.62979 0
203 1 Si 180.89 17.6393 1.60429 0
204 1 Si 177.866 19.074 1.65153 0
205 1 Si 186.407 17.8047 1.63525 0
206 1 Si 183.587 19.3315 1.61938 0
207 1 Si 191.541 17.4337 1.62952 0
208 1 Si 189.132 19.5016 1.6238 0
209 1 Si 197.12 17.0063 1.62271 0
210 1 Si 202.328 19.8511 1.63245 0
211 1 Si 199.347 19.0416 1.59263 0
212 1 Si 117.108 21.9564 1.62407 0
213 1 Si 111.752 22.7089 1.61272 0
214 1 Si 114.642 23.9257 1.63988 0
215 1 Si 122.976 20.8527 1.61614 0
216 1 Si 120.169 23.193 1.63126 0
217 1 Si 126.274 19.9508 1.61423 0
218 1 Si 134.336 21.4845 1.61967 0
219 1 Si 128.167 22.3367 1.64808 0
220 1 Si 131.29 22.3391 1.60286 0
221 1 Si 139.697 22.8292 1.61399 0
222 1 Si 136.654 23.6025 1.6264 0
223 1 Si 144.941 22.7606 1.62258 0
224 1 Si 142.346 24.6655 1.62839 0
225 1 Si 158.39 20.4524 1.61937 0
226 1 Si 161.527 21.6024 1.61055 0
227 1 Si 171.954 21.9751 1.61678 0
228 1 Si 168.703 22.8256 1.6185 0
229 1 Si 177.698 22.5418 1.63359 0
230 1 Si 174.642 24.0814 1.63628 0
231 1 Si 194.434 18.4876 1.61999 0
232 1 Si 200.808 23.0042 1.6256 0
233 1 Si 202.686 25.7348 1.62098 0
234 1 Si 2.00408 25.3512 1.61659 0
235 1 Si 4.60372 23.12 1.61896 0
236 1 Si 5.52754 19.8356 1.62912 0
237 1 Si 106.428 23.8256 1.63127 0
238 1 Si 103.948 26.0188 1.61437 0
239 1 Si 101.373 24.0974 1.61771 0
240 1 Si 100.914 21.0005 1.64023 0
241 1 Si 109.418 24.8583 1.61398 0
242 1 Si 150.684 21.4876 1.63071 0
243 1 Si 148.151 23.7261 1.63266 0
244 1 Si 156.412 22.9611 1.61521 0
245 1 Si 153.257 23.3517 1.61744 0
246 1 Si 161.433 25.0208 1.63936 0
247 1 Si 158.156 25.6581 1.60044 0
248 1 Si 183.266 22.4532 1.62916 0
249 1 Si 180.611 24.2768 1.61569 0
250 1 Si 188.958 22.7154 1.62961 0
251 1 Si 186.001 23.9462 1.61027 0
252 1 Si 196.65 20.6154 1.61548 0
253 1 Si 197.342 23.5937 1.62118 0
254 1 Si 190.96 25.227 1.62733 0
255 1 Si 194.378 25.2921 1.61887 0
256 1 Si 114.168 27.0107 1.62645 0
257 1 Si 111.009 27.5759 1.62694 0
258 1 Si 119.274 26.6433 1.619 0
259 1 Si 116.633 28.9859 1.63596 0
260 1 Si 127.056 25.2273 1.62294 0
261 1 Si 124.807 27.363 1.62253 0
262 1 Si 121.83 28.4289 1.64351 0
263 1 Si 130.178 25.296 1.61795 0
264 1 Si 136.005 26.6005 1.63753 0
265 1 Si 132.829 26.9258 1.63106 0
266 1 Si 152.647 47.9095 1.59421 0
267 1 Si 155.673 46.8456 1.65265 0
268 1 Si 149.882 49.5693 1.63371 0
269 1 Si 158.383 48.5214 1.61719 0
270 1 Si 150.118 52.701 1.62774 0
271 1 Si 158.669 51.7958 1.61742 0
272 1 Si 153.104 54.0108 1.59969 0
273 1 Si 156.335 54.2457 1.63512 0
274 1 Si 151.09 45.2034 1.62995 0
275 1 Si 152.732 42.624 1.62836 0
276 1 Si 155.672 43.6279 1.60751 0
277 1 Si 148.035 45.0092 1.61661 0
278 1 Si 147.009 48.0048 1.60102 0
279 1 Si 141.853 27.8746 1.63483 0
280 1 Si 138.623 28.4535 1.6293 0
281 1 Si 167.742 26.2908 1.63713 0
282 1 Si 164.005 27.394 1.66393 0
283 1 Si 174.23 27.5227 1.63844 0
284 1 Si 170.746 28.5509 1.6252 0
285 1 Si 182.189 27.2309 1.63437 0
286 1 Si 177.277 29.8132 1.6143 0
287 1 Si 180.993 30.2415 1.63296 0
288 1 Si 196.131 51.1405 1.62729 0
289 1 Si 194.735 54.2364 1.63166 0
290 1 Si 193.605 49.2122 1.63089 0
291 1 Si 190.522 50.1533 1.62945 0
292 1 Si 189.696 53.2424 1.61268 0
293 1 Si 191.733 55.71 1.61427 0
294 1 Si 199.644 55.2541 1.61568 0
295 1 Si 196.672 56.6946 1.61927 0
296 1 Si 199.155 49.5598 1.62782 0
297 1 Si 201.016 52.2501 1.62716 0
298 1 Si 200.65 58.2267 1.6236 0
299 1 Si 195.665 59.8896 1.63894 0
300 1 Si 198.638 60.6677 1.61624 0
301 1 Si 110.017 30.5381 1.60478 0
302 1 Si 103.026 29.2815 1.64256 0
303 1 Si 149.19 26.9682 1.65851 0
304 1 Si 144.039 30.4519 1.62636 0
305 1 Si 147.51 30.0528 1.62335 0
306 1 Si 152.429 26.4392 1.60285 0
307 1 Si 155.487 27.5481 1.6367 0
308 1 Si 185.46 27.0445 1.59083 0
309 1 Si 188.651 27.6853 1.62987 0
310 1 Si 195.173 28.395 1.61552 0
311 1 Si 189.505 30.7505 1.62024 0
312 1 Si 192.735 30.5191 1.62916 0
313 1 Si 201.332 28.9098 1.61881 0
314 1 Si 198.162 29.653 1.6447 0
315 1 Si 126.181 30.1311 1.63641 0
316 1 Si 121.27 31.5472 1.61012 0
317 1 Si 124.207 32.4709 1.61544 0
318 1 Si 131.909 29.8086 1.61645 0
319 1 Si 129.087 31.0479 1.62435 0
320 1 Si 134.398 31.6789 1.62277 0
321 1 Si 129.708 34.0705 1.62358 0
322 1 Si 132.809 34.3567 1.64708 0
323 1 Si 137.507 31.3979 1.64597 0
324 1 Si 142.497 33.5343 1.62978 0
325 1 Si 139.219 34.0829 1.6401 0
326 1 Si 155.244 30.6629 1.61572 0
327 1 Si 149.304 33.016 1.625 0
328 1 Si 152.717 32.6874 1.63156 0
329 1 Si 162.823 30.7816 1.62422 0
330 1 Si 157.394 32.9007 1.61048 0
331 1 Si 160.478 33.3356 1.63058 0
332 1 Si 170.542 32.005 1.62775 0
333 1 Si 164.703 33.3812 1.62367 0
334 1 Si 167.837 33.928 1.62561 0
335 1 Si 176.425 32.9841 1.63925 0
336 1 Si 173.249 34.0416 1.63252 0
337 1 Si 183.957 32.8252 1.63193 0
338 1 Si 178.952 35.0812 1.62324 0
339 1 Si 182.23 35.5196 1.63316 0
340 1 Si 3.21277 28.4068 1.60429 0
341 1 Si 203.075 31.8202 1.63135 0
342 1 Si 2.19469 31.4776 1.64218 0
343 1 Si 7.22741 25.094 1.61815 0
344 1 Si 6.37287 28.1342 1.62213 0
345 1 Si 98.8866 25.9102 1.63097 0
346 1 Si 99.8126 28.9458 1.59821 0
347 1 Si 119.826 34.3043 1.6229 0
348 1 Si 147.449 36.0752 1.63322 0
349 1 Si 144.061 36.4477 1.63604 0
350 1 Si 154.991 34.9438 1.61795 0
351 1 Si 11.6314 4.62437 1.61598 0
352 1 Si 11.8164 8.3454 1.63027 0
353 1 Si 9.32248 1.87693 1.64115 0
354 1 Si 8.95305 9.95251 1.6268 0
355 1 Si 14.7625 3.40503 1.63432 0
356 1 Si 16.9087 5.90173 1.6242 0
357 1 Si 17.0249 9.17367 1.6165 0
358 1 Si 14.4096 10.9577 1.64548 0
359 1 Si 15.6887 0.0694587 1.62941 0
360 1 Si 13.3509 175.655 1.61769 0
361 1 Si 10.2315 176.448 1.65016 0
362 1 Si 187.655 33.5247 1.61516 0
363 1 Si 21.6741 2.81944 1.62127 0
364 1 Si 20.0561 5.48998 1.62345 0
365 1 Si 21.2785 177.503 1.64503 0
366 1 Si 18.4992 175.958 1.6187 0
367 1 Si 24.7868 3.24058 1.63011 0
368 1 Si 26.7174 5.6519 1.62217 0
369 1 Si 25.0247 8.34082 1.62282 0
370 1 Si 21.8466 8.15822 1.63065 0
371 1 Si 26.2946 0.572397 1.61768 0
372 1 Si 24.1606 176.146 1.61555 0
373 1 Si 29.8566 4.99263 1.62628 0
374 1 Si 31.3976 2.10122 1.63476 0
375 1 Si 29.3162 177.581 1.63054 0
376 1 Si 31.4585 7.69617 1.62249 0
377 1 Si 29.8868 10.5793 1.64858 0
378 1 Si 26.625 11.1127 1.61979 0
379 1 Si 194.414 33.1331 1.62362 0
380 1 Si 190.128 36.1424 1.64324 0
381 1 Si 193.558 36.1004 1.6465 0
382 1 Si 36.2179 4.25964 1.60885 0
383 1 Si 34.6801 7.25758 1.61403 0
384 1 Si 34.5738 1.44509 1.60449 0
385 1 Si 197.527 32.7163 1.61878 0
386 1 Si 39.0955 2.64182 1.618 0
387 1 Si 42.0012 7.51035 1.62039 0
388 1 Si 41.7822 4.27038 1.62641 0
389 1 Si 34.8613 10.5242 1.62069 0
390 1 Si 40.4986 10.3891 1.61793 0
391 1 Si 37.6583 11.9378 1.62227 0
392 1 Si 36.4367 176.495 1.63078 0
393 1 Si 39.6695 177.177 1.6112 0
394 1 Si 46.5804 4.67989 1.63577 0
395 1 Si 45.1943 7.52916 1.62545 0
396 1 Si 44.4589 2.37139 1.61301 0
397 1 Si 49.6937 4.23247 1.62844 0
398 1 Si 51.5582 6.82201 1.63398 0
399 1 Si 47.0531 10.0718 1.63321 0
400 1 Si 50.257 9.74433 1.64064 0
401 1 Si 51.1365 1.38406 1.61492 0
402 1 Si 45.616 177.123 1.63185 0
403 1 Si 49.0869 176.502 1.65244 0
404 1 Si 202.446 35.1136 1.63403 0
405 1 Si 199.286 35.2763 1.63031 0
406 1 Si 54.6678 6.08114 1.61809 0
407 1 Si 54.209 2.75844 1.63056 0
408 1 Si 65.3516 5.26872 1.64245 0
409 1 Si 61.7994 5.27459 1.63561 0
410 1 Si 67.0739 8.50039 1.62179 0
411 1 Si 60.1912 8.36436 1.62963 0
412 1 Si 65.2858 11.3986 1.64185 0
413 1 Si 61.9049 11.368 1.636 0
414 1 Si 66.9835 2.04053 1.62399 0
415 1 Si 60.0038 2.28011 1.61262 0
416 1 Si 61.6774 177.291 1.62136 0
417 1 Si 64.9717 177.102 1.63833 0
418 1 Si 72.7971 3.64616 1.62795 0
419 1 Si 72.5386 6.99396 1.61717 0
420 1 Si 70.4383 1.10313 1.63142 0
421 1 Si 70.4288 9.52416 1.6273 0
422 1 Si 76.1368 3.34837 1.63243 0
423 1 Si 77.7024 6.25767 1.6106 0
424 1 Si 75.4477 8.39544 1.61767 0
425 1 Si 78.0707 0.716658 1.61749 0
426 1 Si 74.4821 173.448 1.62724 0
427 1 Si 77.3274 175.26 1.63409 0
428 1 Si 71.527 175.397 1.61971 0
429 1 Si 124.735 35.5355 1.62741 0
430 1 Si 127.683 36.4812 1.62844 0
431 1 Si 121.874 36.6976 1.62045 0
432 1 Si 83.2597 4.17401 1.62042 0
433 1 Si 83.0617 7.55709 1.62236 0
434 1 Si 81.3241 1.38843 1.6226 0
435 1 Si 80.0985 8.55274 1.63098 0
436 1 Si 134.159 37.1703 1.6283 0
437 1 Si 137.431 36.8906 1.6457 0
438 1 Si 86.5071 4.18807 1.63381 0
439 1 Si 87.2046 7.42389 1.62811 0
440 1 Si 85.2968 10.1186 1.61373 0
441 1 Si 88.8194 1.69353 1.63301 0
442 1 Si 88.0478 176.228 1.6235 0
443 1 Si 85.1654 174.881 1.62041 0
444 1 Si 82.3144 176.157 1.6223 0
445 1 Si 92.0494 2.72442 1.62706 0
446 1 Si 92.4741 5.9818 1.63479 0
447 1 Si 90.2147 8.31937 1.6481 0
448 1 Si 94.93 0.934814 1.64488 0
449 1 Si 94.7778 175.51 1.6258 0
450 1 Si 92.5082 173.136 1.62958 0
451 1 Si 89.3502 173.168 1.6199 0
452 1 Si 154.583 38.095 1.631 0
453 1 Si 148.643 39.1958 1.62521 0
454 1 Si 151.824 39.6311 1.63894 0
455 1 Si 98.044 2.27327 1.61753 0
456 1 Si 98.0124 5.45073 1.63644 0
457 1 Si 95.414 7.19424 1.64225 0
458 1 Si 100.832 174.539 1.62458 0
459 1 Si 97.6056 173.985 1.6404 0
460 1 Si 160.264 36.8133 1.59389 0
461 1 Si 163.334 36.2951 1.61425 0
462 1 Si 8.60594 13.3075 1.62221 0
463 1 Si 172.872 37.3589 1.63306 0
464 1 Si 167.798 37.2024 1.6166 0
465 1 Si 170.217 39.2286 1.63652 0
466 1 Si 178.084 38.0977 1.63713 0
467 1 Si 175.271 39.4707 1.62738 0
468 1 Si 19.9291 10.6854 1.62852 0
469 1 Si 183.332 38.5779 1.5888 0
470 1 Si 180.539 39.9524 1.63373 0
471 1 Si 32.3293 12.6451 1.61466 0
472 1 Si 0.140149 38.0125 1.62934 0
473 1 Si 3.51296 37.3879 1.61041 0
474 1 Si 4.0672 34.1599 1.61938 0
475 1 Si 189.942 39.3909 1.63074 0
476 1 Si 184.591 41.566 1.63803 0
477 1 Si 187.708 41.75 1.61837 0
478 1 Si 42.3631 12.9979 1.62256 0
479 1 Si 45.5415 12.8883 1.64132 0
480 1 Si 56.7943 8.69705 1.63631 0
481 1 Si 52.1121 12.382 1.64832 0
482 1 Si 55.3859 11.8306 1.63895 0
483 1 Si 120.667 39.5467 1.62948 0
484 1 Si 56.8884 0.967995 1.62713 0
485 1 Si 128.739 39.4692 1.62987 0
486 1 Si 132.075 39.7111 1.60917 0
487 1 Si 71.9077 12.8459 1.63304 0
488 1 Si 66.7534 14.4512 1.61559 0
489 1 Si 69.8929 15.4866 1.6138 0
490 1 Si 138.88 39.7648 1.62403 0
491 1 Si 142.201 39.3688 1.64455 0
492 1 Si 76.7554 11.2822 1.61761 0
493 1 Si 79.8771 11.813 1.62278 0
494 1 Si 159.774 40.2241 1.62431 0
495 1 Si 156.659 40.5909 1.63486 0
496 1 Si 95.8901 10.3003 1.63653 0
497 1 Si 90.4982 11.5563 1.61077 0
498 1 Si 93.5028 12.3259 1.61608 0
499 1 Si 98.6565 11.756 1.61267 0
500 1 Si 165.086 38.9234 1.62271 0
501 1 Si 15.6674 14.4251 1.62787 0
502 1 Si 10.3022 16.1217 1.6305 0
503 1 Si 13.4988 16.8527 1.62451 0
504 1 Si 24.5775 13.7261 1.62337 0
505 1 Si 21.1639 13.7318 1.65052 0
506 1 Si 196.758 37.2601 1.62279 0
507 1 Si 198.631 39.9361 1.62052 0
508 1 Si 192.638 41.1843 1.63116 0
509 1 Si 195.887 41.6447 1.61713 0
510 1 Si 32.3754 15.9631 1.62938 0
511 1 Si 26.2801 16.4375 1.63312 0
512 1 Si 29.4283 17.3874 1.62759 0
513 1 Si 37.6011 15.1785 1.61144 0
514 1 Si 40.7191 15.7335 1.63884 0
515 1 Si 47.2373 15.6 1.64829 0
516 1 Si 50.5101 15.2913 1.65218 0
517 1 Si 202.025 40.7644 1.62548 0
518 1 Si 57.0155 14.7409 1.64328 0
519 1 Si 60.3298 14.4539 1.62869 0
520 1 Si 122.97 41.9232 1.63383 0
521 1 Si 126.424 41.8413 1.64989 0
522 1 Si 75.1335 13.9807 1.60066 0
523 1 Si 133.622 42.6515 1.62583 0
524 1 Si 137.008 42.5742 1.61526 0
525 1 Si 86.0343 13.6805 1.63497 0
526 1 Si 80.9343 14.8889 1.61626 0
527 1 Si 83.9653 16.4111 1.61756 0
528 1 Si 89.2057 14.5947 1.61696 0
529 1 Si 143.628 42.3127 1.64229 0
530 1 Si 146.862 42.0321 1.62085 0
531 1 Si 97.2989 14.6808 1.62908 0
532 1 Si 99.5455 16.8421 1.62498 0
533 1 Si 164.521 42.1455 1.63237 0
534 1 Si 161.455 43.2393 1.62353 0
535 1 Si 169.735 42.5243 1.64035 0
536 1 Si 166.972 44.3154 1.63284 0
537 1 Si 18.7038 16.0897 1.61771 0
538 1 Si 174.961 42.6691 1.6183 0
539 1 Si 172.285 44.4359 1.63323 0
540 1 Si 180.18 43.0088 1.64099 0
541 1 Si 177.474 44.5022 1.62198 0
542 1 Si 182.943 44.3871 1.57475 0
543 1 Si 35.3698 17.5254 1.63029 0
544 1 Si 202.901 44.2072 1.62736 0
545 1 Si 2.18847 45.7786 1.6598 0
546 1 Si 6.80002 38.4462 1.62621 0
547 1 Si 7.82534 41.6549 1.62058 0
548 1 Si 5.69409 44.4589 1.61048 0
549 1 Si 42.1745 18.5617 1.62669 0
550 1 Si 45.461 18.3558 1.63723 0
551 1 Si 104.613 43.71 1.62571 0
552 1 Si 102.381 41.2757 1.62496 0
553 1 Si 52.1386 18.1194 1.64959 0
554 1 Si 55.4386 17.7808 1.64722 0
555 1 Si 117.66 44.6081 1.63514 0
556 1 Si 121.13 44.6812 1.63781 0
557 1 Si 65.0727 17.2953 1.62428 0
558 1 Si 61.8016 17.5275 1.63417 0
559 1 Si 128.223 44.5699 1.61968 0
560 1 Si 131.475 45.238 1.6258 0
561 1 Si 66.8322 20.0367 1.61533 0
562 1 Si 69.9394 18.8803 1.61544 0
563 1 Si 138.828 45.2966 1.63525 0
564 1 Si 142.118 45.2696 1.63468 0
565 1 Si 94.1231 15.3943 1.60182 0
566 1 Si 91.4125 17.2183 1.63117 0
567 1 Si 8.76387 19.0269 1.62496 0
568 1 Si 13.9701 20.1197 1.60577 0
569 1 Si 11.0061 21.3637 1.628 0
570 1 Si 24.3495 18.9089 1.60117 0
571 1 Si 18.6998 19.6151 1.62549 0
572 1 Si 21.6955 20.5549 1.62104 0
573 1 Si 191.769 44.1813 1.62356 0
574 1 Si 188.718 44.812 1.61246 0
575 1 Si 29.3936 20.5824 1.63714 0
576 1 Si 26.3442 21.2919 1.60533 0
577 1 Si 197.049 44.6639 1.61559 0
578 1 Si 194.231 46.1424 1.62404 0
579 1 Si 36.8405 20.6087 1.62946 0
580 1 Si 40.1916 21.2095 1.62622 0
581 1 Si 199.964 46.1716 1.64378 0
582 1 Si 47.1108 21.1136 1.64994 0
583 1 Si 50.4023 20.984 1.6489 0
584 1 Si 110.386 47.0842 1.63447 0
585 1 Si 116.424 47.9376 1.62902 0
586 1 Si 113.131 49 1.63125 0
587 1 Si 56.9243 20.7657 1.64237 0
588 1 Si 60.262 20.6159 1.64478 0
589 1 Si 77.8135 16.0367 1.6235 0
590 1 Si 123.136 47.3457 1.64147 0
591 1 Si 126.409 47.2181 1.63751 0
592 1 Si 131.489 48.5857 1.59456 0
593 1 Si 137.349 48.0944 1.60131 0
594 1 Si 135.523 50.5871 1.66229 0
595 1 Si 132.701 51.6813 1.61616 0
596 1 Si 143.788 48.1622 1.64324 0
597 1 Si 16.4626 22.2667 1.62196 0
598 1 Si 166.693 47.723 1.64245 0
599 1 Si 161.126 46.6733 1.62713 0
600 1 Si 163.55 48.9209 1.61592 0
601 1 Si 172.178 47.6739 1.63862 0
602 1 Si 169.563 49.5527 1.61317 0
603 1 Si 34.8699 23.1969 1.63532 0
604 1 Si 31.6447 22.7853 1.62784 0
605 1 Si 177.574 47.6155 1.59452 0
606 1 Si 174.916 49.3389 1.63801 0
607 1 Si 180.687 46.7761 1.57041 0
608 1 Si 41.9686 24.0213 1.62663 0
609 1 Si 45.2476 23.7955 1.62469 0
610 1 Si 107.356 48.7129 1.62774 0
611 1 Si 104.447 46.9534 1.62838 0
612 1 Si 51.8115 23.9554 1.63801 0
613 1 Si 55.1514 23.6771 1.63913 0
614 1 Si 118.588 50.6166 1.634 0
615 1 Si 121.885 50.3781 1.64393 0
616 1 Si 61.8516 23.6097 1.62113 0
617 1 Si 65.1953 23.0045 1.62684 0
618 1 Si 128.449 49.6925 1.60986 0
619 1 Si 77.8574 19.2476 1.62242 0
620 1 Si 71.9395 21.5209 1.63596 0
621 1 Si 75.2592 21.3409 1.62099 0
622 1 Si 139.144 50.6339 1.59584 0
623 1 Si 142.211 50.9792 1.6068 0
624 1 Si 80.896 20.6032 1.62684 0
625 1 Si 84.1685 19.9486 1.63113 0
626 1 Si 97.9825 19.7407 1.61619 0
627 1 Si 91.9252 20.6325 1.62616 0
628 1 Si 95.1872 21.5336 1.63708 0
629 1 Si 10.4106 24.5386 1.6343 0
630 1 Si 188.148 47.955 1.64606 0
631 1 Si 182.21 49.3698 1.58035 0
632 1 Si 185.3 49.2665 1.58178 0
633 1 Si 23.6997 22.8946 1.63852 0
634 1 Si 35.6819 26.3789 1.62287 0
635 1 Si 41.2083 27.2694 1.61754 0
636 1 Si 38.1604 28.644 1.6432 0
637 1 Si 0.149508 51.9257 1.6273 0
638 1 Si 1.98608 49.2047 1.62822 0
639 1 Si 46.5513 26.7657 1.62601 0
640 1 Si 49.8926 26.7969 1.64073 0
641 1 Si 107.183 52.0844 1.6328 0
642 1 Si 104.412 53.6833 1.6244 0
643 1 Si 101.923 51.5659 1.6125 0
644 1 Si 101.391 48.3184 1.63312 0
645 1 Si 56.6847 26.5799 1.64352 0
646 1 Si 60.0575 26.5902 1.64481 0
647 1 Si 112.378 52.262 1.62149 0
648 1 Si 117.691 53.838 1.62919 0
649 1 Si 114.59 54.5342 1.63445 0
650 1 Si 70.3353 24.4827 1.6275 0
651 1 Si 67.1865 25.5203 1.631 0
652 1 Si 123.918 53.0247 1.64253 0
653 1 Si 127.202 52.6533 1.64256 0
654 1 Si 76.8827 24.1113 1.59609 0
655 1 Si 80.0069 23.6118 1.61677 0
656 1 Si 137.145 53.4289 1.55339 0
657 1 Si 86.3395 22.9368 1.62978 0
658 1 Si 89.7778 23.3745 1.6253 0
659 1 Si 141.87 54.2087 1.63367 0
660 1 Si 147.335 54.4668 1.5742 0
661 1 Si 144.429 56.0181 1.62681 0
662 1 Si 161.977 51.8733 1.61848 0
663 1 Si 171.336 52.4657 1.62393 0
664 1 Si 163.273 54.8369 1.63491 0
665 1 Si 166.532 55.3428 1.59513 0
666 1 Si 169.824 55.3123 1.6327 0
667 1 Si 15.88 25.8454 1.63399 0
668 1 Si 12.6974 26.987 1.6311 0
669 1 Si 174.75 52.5276 1.58934 0
670 1 Si 23.8323 25.9165 1.63231 0
671 1 Si 21.2735 27.9054 1.61492 0
672 1 Si 18.0148 28.5624 1.64034 0
673 1 Si 30.1928 25.5535 1.64469 0
674 1 Si 27.0772 26.1425 1.61701 0
675 1 Si 181.072 52.2712 1.62125 0
676 1 Si 178.021 53.514 1.63628 0
677 1 Si 184.308 52.3013 1.62862 0
678 1 Si 32.6968 27.5073 1.62926 0
679 1 Si 109.694 54.1286 1.63048 0
680 1 Si 44.0532 29.0094 1.62146 0
681 1 Si 186.685 54.3697 1.61613 0
682 1 Si 51.417 29.744 1.61967 0
683 1 Si 54.6851 29.2516 1.62154 0
684 1 Si 122.766 56.1283 1.63922 0
685 1 Si 119.518 56.6101 1.64546 0
686 1 Si 71.5222 27.398 1.62272 0
687 1 Si 66.3803 28.7346 1.61801 0
688 1 Si 69.3564 29.6895 1.61578 0
689 1 Si 129.159 55.2178 1.62249 0
690 1 Si 132.347 54.9477 1.62535 0
691 1 Si 76.982 27.3115 1.62847 0
692 1 Si 74.2991 28.9001 1.63138 0
693 1 Si 139.022 55.8431 1.64418 0
694 1 Si 81.7764 26.2488 1.62295 0
695 1 Si 84.986 26.1112 1.63702 0
696 1 Si 148.747 57.2548 1.61928 0
697 1 Si 151.818 56.8875 1.61626 0
698 1 Si 95.9779 24.7008 1.63422 0
699 1 Si 91.0888 26.7461 1.63401 0
700 1 Si 94.365 27.4628 1.61909 0
701 1 Si 11.534 30.1919 1.60862 0
702 1 Si 8.36195 30.5553 1.6301 0
703 1 Si 26.5809 29.1637 1.62658 0
704 1 Si 23.5939 30.0638 1.60928 0
705 1 Si 1.98539 54.6265 1.61289 0
706 1 Si 3.68987 51.9289 1.62334 0
707 1 Si 61.1983 29.7368 1.63134 0
708 1 Si 64.1595 31.153 1.6407 0
709 1 Si 103.825 56.9301 1.62188 0
710 1 Si 100.631 56.7997 1.62829 0
711 1 Si 99.6202 53.7366 1.62588 0
712 1 Si 110.123 57.3863 1.64288 0
713 1 Si 113.306 57.4727 1.62806 0
714 1 Si 128.051 58.2299 1.61935 0
715 1 Si 124.754 58.7939 1.63086 0
716 1 Si 79.8415 28.8172 1.61544 0
717 1 Si 133.838 57.8582 1.62617 0
718 1 Si 137.146 58.5226 1.63822 0
719 1 Si 86.1363 29.307 1.64131 0
720 1 Si 89.4376 29.7661 1.62772 0
721 1 Si 144.038 59.3055 1.6178 0
722 1 Si 147.16 59.9505 1.63996 0
723 1 Si 161.382 57.6232 1.59651 0
724 1 Si 156.259 57.5789 1.61998 0
725 1 Si 158.662 59.6125 1.62767 0
726 1 Si 11.7224 33.5789 1.62685 0
727 1 Si 17.1868 31.9731 1.6277 0
728 1 Si 14.7944 34.4481 1.62797 0
729 1 Si 166.478 58.4944 1.61777 0
730 1 Si 163.635 59.8222 1.61997 0
731 1 Si 171.313 58.302 1.59691 0
732 1 Si 168.949 60.4341 1.61608 0
733 1 Si 32.0797 30.5498 1.63887 0
734 1 Si 28.9899 31.1274 1.6159 0
735 1 Si 178.766 56.5525 1.63792 0
736 1 Si 176.551 58.7713 1.59566 0
737 1 Si 173.848 60.3945 1.63366 0
738 1 Si 181.291 58.4583 1.60926 0
739 1 Si 179.041 60.6183 1.62317 0
740 1 Si 37.4747 32.0632 1.61808 0
741 1 Si 34.3184 32.8046 1.63934 0
742 1 Si 186.733 57.5735 1.60833 0
743 1 Si 184.256 59.6565 1.64216 0
744 1 Si 189.864 58.5048 1.62302 0
745 1 Si 44.2449 32.3744 1.62322 0
746 1 Si 38.8691 35.2214 1.63229 0
747 1 Si 42.099 34.9638 1.61957 0
748 1 Si 50.2274 32.9379 1.62831 0
749 1 Si 47.1214 33.9044 1.61765 0
750 1 Si 108.5 60.2586 1.64833 0
751 1 Si 105.243 59.9274 1.64261 0
752 1 Si 55.9815 32.1167 1.62249 0
753 1 Si 59.095 32.1482 1.6183 0
754 1 Si 114.984 60.1579 1.63594 0
755 1 Si 118.203 59.6868 1.64361 0
756 1 Si 70.6602 32.4835 1.61908 0
757 1 Si 64.6018 34.5586 1.64092 0
758 1 Si 69.8291 35.5026 1.62034 0
759 1 Si 66.9543 36.9011 1.63162 0
760 1 Si 73.788 32.0088 1.61189 0
761 1 Si 131.042 59.6199 1.62659 0
762 1 Si 138.62 61.5573 1.61546 0
763 1 Si 141.961 61.8847 1.63349 0
764 1 Si 80.7789 31.9371 1.63498 0
765 1 Si 84.135 32.0895 1.63728 0
766 1 Si 153.571 59.4381 1.61691 0
767 1 Si 148.863 62.6533 1.65261 0
768 1 Si 152.189 62.3875 1.63369 0
769 1 Si 96.7396 29.8852 1.63287 0
770 1 Si 7.16056 33.4968 1.64023 0
771 1 Si 9.17537 35.9135 1.58847 0
772 1 Si 24.6103 33.0577 1.62837 0
773 1 Si 19.3824 34.3176 1.61494 0
774 1 Si 22.4616 35.2637 1.62474 0
775 1 Si 27.6868 33.9516 1.61205 0
776 1 Si 2.14381 57.928 1.64285 0
777 1 Si 4.52951 60.2174 1.6155 0
778 1 Si 6.72472 52.486 1.6258 0
779 1 Si 7.86545 55.5334 1.62316 0
780 1 Si 7.37862 58.7392 1.64957 0
781 1 Si 203.471 59.6076 1.62517 0
782 1 Si 51.9463 35.8105 1.61834 0
783 1 Si 54.9651 35.1347 1.63611 0
784 1 Si 110.159 63.1718 1.61772 0
785 1 Si 113.382 62.956 1.62613 0
786 1 Si 59.4606 35.2349 1.63526 0
787 1 Si 62.1773 36.6628 1.62543 0
788 1 Si 123.183 61.7825 1.62188 0
789 1 Si 119.904 62.4876 1.6374 0
790 1 Si 75.2364 34.8018 1.64048 0
791 1 Si 78.574 34.5345 1.62365 0
792 1 Si 131.072 62.7743 1.6369 0
793 1 Si 128.186 64.2117 1.60772 0
794 1 Si 124.961 64.4627 1.6331 0
795 1 Si 133.694 64.6873 1.61563 0
796 1 Si 136.962 64.4899 1.62173 0
797 1 Si 96.7014 33.1131 1.62411 0
798 1 Si 90.5477 33.0893 1.64039 0
799 1 Si 93.6608 34.3107 1.61348 0
800 1 Si 163.253 62.9334 1.61791 0
801 1 Si 157.738 62.8919 1.62104 0
802 1 Si 160.489 64.538 1.63614 0
803 1 Si 99.2529 35.3001 1.61944 0
804 1 Si 168.79 63.7275 1.63637 0
805 1 Si 165.785 64.9108 1.62402 0
806 1 Si 173.968 63.7873 1.6256 0
807 1 Si 171.368 65.8245 1.62931 0
808 1 Si 179.118 63.7171 1.64095 0
809 1 Si 176.636 65.6859 1.63672 0
810 1 Si 18.3509 37.2804 1.63407 0
811 1 Si 15.2452 37.8031 1.61104 0
812 1 Si 184.496 62.943 1.60292 0
813 1 Si 181.987 64.8583 1.62577 0
814 1 Si 33.0667 35.7641 1.61211 0
815 1 Si 29.896 36.2179 1.6245 0
816 1 Si 190.495 61.7746 1.60791 0
817 1 Si 186.336 65.6338 1.6364 0
818 1 Si 189.397 64.9498 1.62008 0
819 1 Si 193.611 62.4837 1.61215 0
820 1 Si 103.404 62.6532 1.62745 0
821 1 Si 98.8109 59.4616 1.64542 0
822 1 Si 100.135 62.4753 1.61425 0
823 1 Si 109.823 66.4924 1.62624 0
824 1 Si 106.868 67.8718 1.62931 0
825 1 Si 104.317 65.7856 1.61 0
826 1 Si 34.3669 38.7647 1.62469 0
827 1 Si 37.6453 38.5432 1.62784 0
828 1 Si 203.102 62.7931 1.62427 0
829 1 Si 200.017 63.4489 1.62041 0
830 1 Si 46.4745 37.0772 1.61372 0
831 1 Si 43.4114 37.9474 1.61419 0
832 1 Si 114.952 65.7926 1.63492 0
833 1 Si 118.279 65.4892 1.6164 0
834 1 Si 48.4201 39.5277 1.62403 0
835 1 Si 51.5211 39.0632 1.62452 0
836 1 Si 57.1444 37.3598 1.62164 0
837 1 Si 128.996 67.2368 1.61694 0
838 1 Si 132.135 67.5084 1.62879 0
839 1 Si 143.452 64.9287 1.63065 0
840 1 Si 146.787 65.1867 1.63086 0
841 1 Si 72.6783 37.0044 1.61224 0
842 1 Si 85.2243 35.2459 1.65049 0
843 1 Si 79.7988 37.5181 1.62361 0
844 1 Si 83.0898 37.8378 1.63429 0
845 1 Si 154.747 64.4691 1.62696 0
846 1 Si 88.4984 35.8119 1.65061 0
847 1 Si 94.5547 37.4693 1.63278 0
848 1 Si 97.7171 38.1615 1.62233 0
849 1 Si 23.6671 38.2884 1.61312 0
850 1 Si 20.7074 39.3929 1.64111 0
851 1 Si 1.29216 65.1045 1.6312 0
852 1 Si 4.17618 63.5761 1.61955 0
853 1 Si 29.3379 39.3445 1.60981 0
854 1 Si 26.2873 40.289 1.65564 0
855 1 Si 112.701 68.2048 1.61791 0
856 1 Si 120.085 68.2684 1.60255 0
857 1 Si 123.61 67.538 1.63396 0
858 1 Si 61.2008 39.7746 1.62882 0
859 1 Si 57.9788 40.4082 1.64247 0
860 1 Si 66.5557 40.2927 1.61402 0