ITEM: TIMESTEP
1397
ITEM: NUMBER OF ATOMS
15612
ITEM: BOX BOUNDS pp pp pp
0.0000000000000000e+00 2.0542533858169051e+02
0.0000000000000000e+00 1.7686086546623224e+02
-1.0000000000000000e+02 1.0000000000000000e+02
ITEM: ATOMS id type element x y z v_uncoordination
1 1 Si 195.952 29.3184 1.62938 0
2 1 Si 194.01 26.5394 1.61383 0
3 1 Si 198.778 27.8081 1.62382 0
4 1 Si 195.242 23.429 1.62401 0
5 1 Si 198.151 24.6516 1.62927 0
6 1 Si 195.734 32.718 1.63936 0
7 1 Si 190.817 26.6611 1.63131 0
8 1 Si 189.387 29.6664 1.63305 0
9 1 Si 189.5 32.9848 1.64711 0
10 1 Si 192.597 34.377 1.61928 0
11 1 Si 201.953 28.3095 1.63501 0
12 1 Si 204.112 30.741 1.63323 0
13 1 Si 202.299 33.7099 1.64206 0
14 1 Si 198.777 34.4211 1.63251 0
15 1 Si 115.317 2.98385 1.63372 0
16 1 Si 118.51 2.3281 1.63127 0
17 1 Si 114.159 5.96024 1.63436 0
18 1 Si 120.16 4.95945 1.59068 0
19 1 Si 119.004 7.84231 1.60155 0
20 1 Si 116.03 8.54727 1.63464 0
21 1 Si 113.066 0.681252 1.63738 0
22 1 Si 120.091 176.367 1.62428 0
23 1 Si 117.615 174.128 1.6435 0
24 1 Si 114.315 174.582 1.64545 0
25 1 Si 108.751 4.22735 1.64125 0
26 1 Si 111.038 6.44104 1.64055 0
27 1 Si 109.82 1.21319 1.64223 0
28 1 Si 122.75 6.6573 1.63291 0
29 1 Si 125.369 5.03354 1.61477 0
30 1 Si 125.795 1.76348 1.62209 0
31 1 Si 123.492 175.983 1.63991 0
32 1 Si 121.584 9.5817 1.62039 0
33 1 Si 129.782 5.45557 1.60136 0
34 1 Si 129.111 2.17806 1.63373 0
35 1 Si 127.341 7.57941 1.5877 0
36 1 Si 134.564 175.462 1.61401 0
37 1 Si 131.385 176.558 1.62424 0
38 1 Si 136.696 3.93508 1.60809 0
39 1 Si 136.91 0.660197 1.63119 0
40 1 Si 135.276 6.90246 1.6302 0
41 1 Si 132.124 7.68183 1.6296 0
42 1 Si 133.222 171.27 1.60645 0
43 1 Si 136.087 172.372 1.62499 0
44 1 Si 130.907 173.422 1.58872 0
45 1 Si 139.865 3.98854 1.63399 0
46 1 Si 141.4 1.25877 1.62982 0
47 1 Si 139.604 175.607 1.58888 0
48 1 Si 141.82 6.4265 1.63385 0
49 1 Si 140.467 9.32497 1.64163 0
50 1 Si 137.234 9.55302 1.6269 0
51 1 Si 146.455 2.93196 1.62468 0
52 1 Si 144.99 5.79517 1.64447 0
53 1 Si 144.46 0.562456 1.64032 0
54 1 Si 149.566 2.03449 1.63331 0
55 1 Si 151.611 4.46589 1.63083 0
56 1 Si 150.207 7.41347 1.64472 0
57 1 Si 147.049 8.21 1.64394 0
58 1 Si 150.67 175.824 1.63835 0
59 1 Si 148.481 173.402 1.64355 0
60 1 Si 145.394 174.415 1.62099 0
61 1 Si 154.808 3.72298 1.62926 0
62 1 Si 156.706 6.3063 1.64052 0
63 1 Si 155.3 9.21569 1.61941 0
64 1 Si 152.192 9.89721 1.63686 0
65 1 Si 156.03 0.66581 1.63864 0
66 1 Si 153.838 175.044 1.63647 0
67 1 Si 162.59 4.6827 1.62477 0
68 1 Si 159.905 6.56741 1.61467 0
69 1 Si 162.157 1.51999 1.61582 0
70 1 Si 159.249 176.836 1.6259 0
71 1 Si 165.742 5.73545 1.6178 0
72 1 Si 165.37 8.84328 1.61564 0
73 1 Si 159.962 9.77615 1.62233 0
74 1 Si 162.866 10.6925 1.60052 0
75 1 Si 164.907 176.564 1.61804 0
76 1 Si 163.406 173.634 1.6302 0
77 1 Si 160.128 173.748 1.6261 0
78 1 Si 168.695 4.19026 1.61623 0
79 1 Si 171.862 5.47759 1.62282 0
80 1 Si 172.705 8.7383 1.62538 0
81 1 Si 170.522 11.5418 1.63173 0
82 1 Si 167.369 11.2243 1.62954 0
83 1 Si 168.095 0.871113 1.62493 0
84 1 Si 174.59 3.42057 1.61655 0
85 1 Si 173.99 0.0523034 1.61763 0
86 1 Si 170.785 175.765 1.61904 0
87 1 Si 177.514 5.14643 1.62396 0
88 1 Si 176.13 8.41744 1.61687 0
89 1 Si 180.922 3.49888 1.63303 0
90 1 Si 181.81 176.71 1.63756 0
91 1 Si 179.802 173.914 1.62305 0
92 1 Si 176.128 174.234 1.62789 0
93 1 Si 183.789 5.55337 1.62233 0
94 1 Si 183.94 9.03054 1.6376 0
95 1 Si 177.722 11.3947 1.63297 0
96 1 Si 181.282 11.2715 1.62116 0
97 1 Si 186.882 4.02562 1.62816 0
98 1 Si 189.843 5.53146 1.63526 0
99 1 Si 189.961 8.78383 1.64095 0
100 1 Si 187.116 10.4308 1.63777 0
101 1 Si 187.472 0.78498 1.63575 0
102 1 Si 185.072 175.499 1.62137 0
103 1 Si 192.76 3.96686 1.62989 0
104 1 Si 193.185 0.742043 1.63029 0
105 1 Si 190.372 176.071 1.62477 0
106 1 Si 195.527 5.58334 1.63375 0
107 1 Si 195.645 8.75902 1.62478 0
108 1 Si 192.884 10.3236 1.62445 0
109 1 Si 198.502 4.40598 1.62373 0
110 1 Si 198.836 1.13476 1.64762 0
111 1 Si 196.12 176.082 1.63174 0
112 1 Si 200.365 7.12484 1.62505 0
113 1 Si 198.644 9.86023 1.61602 0
114 1 Si 205.186 4.32278 1.61863 0
115 1 Si 203.572 7.24198 1.61786 0
116 1 Si 204.728 0.980244 1.62264 0
117 1 Si 201.749 176.508 1.61627 0
118 1 Si 2.6522 5.73664 1.61157 0
119 1 Si 2.88966 8.98682 1.63723 0
120 1 Si 205.323 10.117 1.62406 0
121 1 Si 5.36849 4.1941 1.65281 0
122 1 Si 6.27765 1.23684 1.62767 0
123 1 Si 1.35069 175.149 1.61932 0
124 1 Si 4.61986 175.34 1.63257 0
125 1 Si 105.646 5.12482 1.64632 0
126 1 Si 110.155 9.43743 1.64019 0
127 1 Si 107.266 10.5929 1.62341 0
128 1 Si 105.025 8.32477 1.63563 0
129 1 Si 103.326 2.82893 1.65066 0
130 1 Si 104.198 176.514 1.64036 0
131 1 Si 107.452 175.84 1.64699 0
132 1 Si 115.181 11.5598 1.61612 0
133 1 Si 112.109 11.8133 1.61973 0
134 1 Si 130.952 10.827 1.63028 0
135 1 Si 127.643 10.8526 1.62447 0
136 1 Si 142.545 11.8072 1.64634 0
137 1 Si 145.749 11.1941 1.64747 0
138 1 Si 157.398 11.6011 1.60958 0
139 1 Si 175.569 14.3777 1.6217 0
140 1 Si 170.112 14.9881 1.62508 0
141 1 Si 172.736 16.8618 1.63396 0
142 1 Si 5.63125 10.7772 1.6301 0
143 1 Si 7.9242 5.94848 1.62411 0
144 1 Si 8.13384 8.97274 1.63338 0
145 1 Si 116.023 14.6231 1.62704 0
146 1 Si 121.769 12.7843 1.61004 0
147 1 Si 119.215 15.1058 1.60969 0
148 1 Si 136.116 12.5631 1.62934 0
149 1 Si 133.009 13.4291 1.61675 0
150 1 Si 141.371 14.8438 1.64064 0
151 1 Si 138.139 15.0745 1.63287 0
152 1 Si 150.986 12.892 1.63541 0
153 1 Si 147.811 13.6659 1.64241 0
154 1 Si 156.419 14.6082 1.62251 0
155 1 Si 153.233 15.128 1.62795 0
156 1 Si 164.83 13.0321 1.62276 0
157 1 Si 182.562 14.3011 1.62139 0
158 1 Si 177.518 16.8007 1.64855 0
159 1 Si 180.624 16.7329 1.63729 0
160 1 Si 188.008 13.6457 1.63933 0
161 1 Si 185.538 15.6021 1.6479 0
162 1 Si 193.443 13.4969 1.63735 0
163 1 Si 190.87 15.3582 1.63458 0
164 1 Si 199.132 13.0064 1.629 0
165 1 Si 196.403 14.752 1.62742 0
166 1 Si 204.919 13.4577 1.65168 0
167 1 Si 201.85 14.7069 1.61848 0
168 1 Si 2.0128 15.5657 1.61848 0
169 1 Si 5.18542 15.7881 1.61883 0
170 1 Si 7.38913 13.592 1.62873 0
171 1 Si 107.841 13.7661 1.63449 0
172 1 Si 105.513 15.8434 1.64141 0
173 1 Si 102.771 13.1634 1.62849 0
174 1 Si 102.126 9.68141 1.62077 0
175 1 Si 110.88 14.6782 1.60461 0
176 1 Si 113.383 16.6253 1.64012 0
177 1 Si 125.118 13.1631 1.61779 0
178 1 Si 125.277 16.3749 1.62137 0
179 1 Si 133.405 16.7439 1.62324 0
180 1 Si 127.944 18.331 1.59933 0
181 1 Si 131.242 19.1831 1.62576 0
182 1 Si 146.624 16.7254 1.64712 0
183 1 Si 143.366 17.4594 1.6331 0
184 1 Si 164.237 16.022 1.61374 0
185 1 Si 158.035 17.3436 1.62093 0
186 1 Si 161.305 17.4384 1.62443 0
187 1 Si 167.353 16.9749 1.60301 0
188 1 Si 176.497 19.7147 1.60844 0
189 1 Si 171.536 20.7369 1.641 0
190 1 Si 174.355 21.96 1.64435 0
191 1 Si 122.569 18.2846 1.60244 0
192 1 Si 119.256 18.4748 1.6156 0
193 1 Si 136.58 17.8519 1.62517 0
194 1 Si 152.25 18.1451 1.62488 0
195 1 Si 149.023 18.9513 1.6499 0
196 1 Si 155.347 19.2732 1.62317 0
197 1 Si 162.773 20.1967 1.61956 0
198 1 Si 165.964 19.9113 1.63502 0
199 1 Si 181.55 19.699 1.63066 0
200 1 Si 186.506 18.6759 1.62913 0
201 1 Si 184.35 20.8693 1.61336 0
202 1 Si 179.066 21.4188 1.63332 0
203 1 Si 191.731 18.5815 1.6208 0
204 1 Si 189.209 20.4765 1.64504 0
205 1 Si 197.101 17.8615 1.62885 0
206 1 Si 194.69 20.1103 1.64897 0
207 1 Si 200.381 17.6355 1.61818 0
208 1 Si 2.09987 18.7373 1.60827 0
209 1 Si 202.119 20.2613 1.62719 0
210 1 Si 205.255 20.8762 1.62078 0
211 1 Si 107.563 19.0897 1.62661 0
212 1 Si 105.464 21.308 1.66443 0
213 1 Si 102.812 19.158 1.56455 0
214 1 Si 99.7084 14.1736 1.6229 0
215 1 Si 100.177 17.4488 1.63143 0
216 1 Si 113.164 19.8741 1.60076 0
217 1 Si 110.175 21.5843 1.60855 0
218 1 Si 125.223 19.9515 1.60777 0
219 1 Si 124.833 22.9364 1.64107 0
220 1 Si 132.884 22.29 1.62313 0
221 1 Si 127.567 24.4277 1.59642 0
222 1 Si 130.708 24.7881 1.64261 0
223 1 Si 142.035 20.5776 1.6311 0
224 1 Si 138.48 20.6616 1.64464 0
225 1 Si 148.09 22.0771 1.62556 0
226 1 Si 144.523 23.0801 1.6331 0
227 1 Si 155.127 22.417 1.62439 0
228 1 Si 161.453 23.0771 1.64795 0
229 1 Si 158.269 23.8668 1.607 0
230 1 Si 166.659 23.0208 1.63567 0
231 1 Si 169.699 24.0185 1.6425 0
232 1 Si 5.21089 18.8819 1.61023 0
233 1 Si 104.656 24.3204 1.59962 0
234 1 Si 102.115 22.5052 1.59901 0
235 1 Si 116.482 20.8455 1.62193 0
236 1 Si 116.602 24.306 1.63409 0
237 1 Si 122.42 24.9025 1.60636 0
238 1 Si 119.481 26.1984 1.62143 0
239 1 Si 136.289 23.2555 1.6329 0
240 1 Si 151.565 22.8414 1.61843 0
241 1 Si 164.054 24.991 1.63197 0
242 1 Si 178.525 24.3719 1.60567 0
243 1 Si 175.473 24.8646 1.61209 0
244 1 Si 186.129 23.3817 1.61995 0
245 1 Si 179.524 27.2403 1.63317 0
246 1 Si 184.971 26.1204 1.61535 0
247 1 Si 182.439 27.7083 1.62132 0
248 1 Si 189.268 23.7281 1.60485 0
249 1 Si 200.826 23.1086 1.61395 0
250 1 Si 0.408526 24.041 1.62742 0
251 1 Si 203.025 25.3422 1.61542 0
252 1 Si 2.84225 26.1802 1.63486 0
253 1 Si 5.50794 24.2365 1.61265 0
254 1 Si 7.05913 21.3347 1.62847 0
255 1 Si 113.64 26.0117 1.61598 0
256 1 Si 110.532 25.0311 1.62172 0
257 1 Si 125.17 26.4639 1.63263 0
258 1 Si 143.436 26.4448 1.61695 0
259 1 Si 137.268 26.6364 1.62163 0
260 1 Si 140.431 28.2797 1.63478 0
261 1 Si 151.917 25.9006 1.64187 0
262 1 Si 148.898 27.0346 1.62115 0
263 1 Si 146.02 28.3708 1.64782 0
264 1 Si 158.213 27.122 1.60419 0
265 1 Si 154.972 27.0934 1.65001 0
266 1 Si 163.889 28.2522 1.63639 0
267 1 Si 160.729 29.4738 1.6338 0
268 1 Si 169.634 27.735 1.63845 0
269 1 Si 166.838 29.8752 1.62983 0
270 1 Si 175.086 27.9396 1.61706 0
271 1 Si 172.445 29.6107 1.62212 0
272 1 Si 119.882 29.6269 1.63289 0
273 1 Si 112.433 29.0608 1.62258 0
274 1 Si 117.337 31.8738 1.60892 0
275 1 Si 113.985 31.9556 1.61555 0
276 1 Si 125.696 29.515 1.63231 0
277 1 Si 122.909 31.175 1.62065 0
278 1 Si 131.303 28.0137 1.64225 0
279 1 Si 128.835 30.357 1.63068 0
280 1 Si 134.526 28.6772 1.63966 0
281 1 Si 150.827 29.3882 1.62004 0
282 1 Si 153.828 29.8838 1.62239 0
283 1 Si 177.691 29.7091 1.5976 0
284 1 Si 186.421 28.8132 1.60877 0
285 1 Si 183.788 30.4485 1.61132 0
286 1 Si 2.07344 29.6158 1.62701 0
287 1 Si 109.311 28.1681 1.62646 0
288 1 Si 106.286 29.7498 1.62319 0
289 1 Si 103.961 27.4165 1.62375 0
290 1 Si 140.348 31.8592 1.62797 0
291 1 Si 134.496 31.9344 1.62674 0
292 1 Si 137.395 33.1974 1.61565 0
293 1 Si 146.256 31.5387 1.61489 0
294 1 Si 141.832 35.0073 1.60779 0
295 1 Si 146.866 34.6682 1.64205 0
296 1 Si 144.647 36.824 1.6141 0
297 1 Si 149.298 31.9505 1.63072 0
298 1 Si 160.179 32.8465 1.60871 0
299 1 Si 154.439 32.8764 1.63797 0
300 1 Si 157.244 34.1391 1.61662 0
301 1 Si 166.788 33.3703 1.63324 0
302 1 Si 161.589 35.8912 1.62913 0
303 1 Si 164.778 36.1573 1.62067 0
304 1 Si 174.092 32.584 1.62156 0
305 1 Si 169.37 35.2776 1.61307 0
306 1 Si 172.587 35.4232 1.6252 0
307 1 Si 177.457 32.8455 1.62468 0
308 1 Si 4.61595 31.9662 1.61707 0
309 1 Si 8.62655 23.8256 1.61439 0
310 1 Si 10.4684 26.1636 1.63741 0
311 1 Si 9.7471 29.121 1.59896 0
312 1 Si 7.84742 31.5585 1.6198 0
313 1 Si 10.7777 4.77088 1.61538 0
314 1 Si 9.36962 1.99862 1.62676 0
315 1 Si 13.1515 6.7179 1.65027 0
316 1 Si 11.2234 9.20091 1.63438 0
317 1 Si 17.3991 3.2944 1.62696 0
318 1 Si 16.2854 6.37146 1.61781 0
319 1 Si 15.0261 0.902363 1.64647 0
320 1 Si 11.8189 0.153881 1.60959 0
321 1 Si 20.7895 3.09283 1.62541 0
322 1 Si 22.5264 6.69244 1.63146 0
323 1 Si 17.7326 9.27066 1.63177 0
324 1 Si 20.9457 9.85552 1.621 0
325 1 Si 21.7636 176.351 1.63372 0
326 1 Si 17.2204 172.154 1.63179 0
327 1 Si 20.3488 173.117 1.62326 0
328 1 Si 15.2236 174.616 1.61467 0
329 1 Si 123.371 34.4004 1.62525 0
330 1 Si 117.932 35.1084 1.61653 0
331 1 Si 120.845 36.4203 1.64066 0
332 1 Si 27.7729 4.17708 1.62646 0
333 1 Si 25.9281 7.04605 1.62968 0
334 1 Si 30.9573 4.81935 1.62687 0
335 1 Si 32.6961 7.50081 1.62748 0
336 1 Si 27.6628 10.0727 1.62387 0
337 1 Si 30.9491 10.132 1.61559 0
338 1 Si 27.3693 0.860027 1.63324 0
339 1 Si 24.9579 175.577 1.62888 0
340 1 Si 128.955 33.7116 1.6364 0
341 1 Si 132.177 34.2937 1.61653 0
342 1 Si 33.4221 2.83308 1.63204 0
343 1 Si 36.3872 3.99986 1.64098 0
344 1 Si 35.9258 7.14332 1.63038 0
345 1 Si 32.9266 176.626 1.64207 0
346 1 Si 29.9078 175.671 1.6363 0
347 1 Si 126.239 35.8572 1.61031 0
348 1 Si 39.1276 2.28723 1.65239 0
349 1 Si 41.3318 7.20794 1.61826 0
350 1 Si 41.994 3.92402 1.61877 0
351 1 Si 38.5164 9.07726 1.64426 0
352 1 Si 35.5691 174.862 1.61763 0
353 1 Si 38.63 175.944 1.62893 0
354 1 Si 47.1981 7.72144 1.62812 0
355 1 Si 44.1119 8.75414 1.63431 0
356 1 Si 49.3345 10.0906 1.628 0
357 1 Si 44.2309 11.8842 1.60479 0
358 1 Si 47.2961 12.4453 1.61322 0
359 1 Si 48.0407 4.65428 1.61563 0
360 1 Si 45.2343 2.72115 1.62142 0
361 1 Si 51.3515 3.998 1.63472 0
362 1 Si 51.9224 0.85927 1.63343 0
363 1 Si 49.435 175.744 1.62377 0
364 1 Si 46.1591 176.376 1.62895 0
365 1 Si 54.2562 5.55238 1.63422 0
366 1 Si 54.8123 8.71973 1.62125 0
367 1 Si 52.4248 10.8328 1.63723 0
368 1 Si 57.2064 4.17229 1.61626 0
369 1 Si 57.6012 0.943148 1.6347 0
370 1 Si 54.8091 176.26 1.62539 0
371 1 Si 59.3634 6.6163 1.62418 0
372 1 Si 57.9555 9.56435 1.61731 0
373 1 Si 62.4435 5.66294 1.63226 0
374 1 Si 62.6066 2.02577 1.6358 0
375 1 Si 60.4378 176.116 1.61963 0
376 1 Si 67.558 3.64445 1.62806 0
377 1 Si 65.6793 0.937875 1.61674 0
378 1 Si 67.4632 6.93124 1.63638 0
379 1 Si 64.5772 8.46921 1.61997 0
380 1 Si 151.574 33.984 1.62482 0
381 1 Si 70.3749 2.204 1.63592 0
382 1 Si 70.5254 175.906 1.60276 0
383 1 Si 67.3685 174.82 1.6316 0
384 1 Si 73.1686 3.66112 1.6129 0
385 1 Si 72.9646 6.87121 1.62603 0
386 1 Si 70.2497 8.69315 1.63435 0
387 1 Si 75.7157 1.65213 1.61494 0
388 1 Si 78.489 6.07835 1.63414 0
389 1 Si 78.8467 2.87459 1.64816 0
390 1 Si 75.9058 7.99813 1.6415 0
391 1 Si 73.8612 175.756 1.62472 0
392 1 Si 84.8021 4.12819 1.62867 0
393 1 Si 88.1644 3.88328 1.63961 0
394 1 Si 84.0979 7.25566 1.64572 0
395 1 Si 90.6497 6.22509 1.63105 0
396 1 Si 86.2174 9.68224 1.63402 0
397 1 Si 89.469 9.25683 1.63682 0
398 1 Si 82.1577 1.93661 1.6239 0
399 1 Si 89.0399 0.777727 1.63354 0
400 1 Si 86.6321 175.335 1.6225 0
401 1 Si 83.3141 175.687 1.61826 0
402 1 Si 81.0118 7.93677 1.63666 0
403 1 Si 183.399 33.5404 1.62329 0
404 1 Si 180.25 34.7828 1.62913 0
405 1 Si 94.0393 5.84628 1.65044 0
406 1 Si 94.7231 2.55117 1.64721 0
407 1 Si 92.3148 0.246349 1.64011 0
408 1 Si 100.212 3.87484 1.64373 0
409 1 Si 99.7237 7.2312 1.64778 0
410 1 Si 97.868 1.46805 1.64053 0
411 1 Si 101.825 174.166 1.62863 0
412 1 Si 98.5774 174.999 1.63839 0
413 1 Si 96.6102 8.2871 1.62439 0
414 1 Si 186.526 34.7662 1.63195 0
415 1 Si 12.5854 11.9116 1.61116 0
416 1 Si 15.7326 11.7608 1.62511 0
417 1 Si 27.2892 13.4187 1.60293 0
418 1 Si 21.4731 13.2586 1.60062 0
419 1 Si 26.1818 16.6087 1.62642 0
420 1 Si 23.1138 16.0525 1.63063 0
421 1 Si 32.3688 13.019 1.60999 0
422 1 Si 29.993 15.1065 1.60507 0
423 1 Si 204.177 36.4608 1.61008 0
424 1 Si 2.11913 37.4517 1.63325 0
425 1 Si 4.74048 35.3536 1.62311 0
426 1 Si 38.0312 12.4112 1.6175 0
427 1 Si 35.3157 14.188 1.62699 0
428 1 Si 112.795 35.1432 1.60724 0
429 1 Si 106.842 36.0261 1.62476 0
430 1 Si 105.098 33.0533 1.63477 0
431 1 Si 110.039 36.9907 1.62582 0
432 1 Si 39.8564 15.1533 1.61785 0
433 1 Si 42.9707 14.7877 1.63742 0
434 1 Si 115.406 37.1569 1.62069 0
435 1 Si 70.1939 12.0069 1.61986 0
436 1 Si 64.6478 12.0122 1.6455 0
437 1 Si 67.4983 13.867 1.63302 0
438 1 Si 136.998 36.369 1.61143 0
439 1 Si 133.838 37.0949 1.62013 0
440 1 Si 76.6925 11.0509 1.61783 0
441 1 Si 72.3647 14.4263 1.61735 0
442 1 Si 75.4447 13.9567 1.63553 0
443 1 Si 139.893 37.7167 1.63486 0
444 1 Si 79.8181 10.8397 1.61852 0
445 1 Si 149.63 36.2877 1.6237 0
446 1 Si 84.8327 12.5955 1.62786 0
447 1 Si 81.7163 13.2677 1.63071 0
448 1 Si 97.1585 11.7422 1.62249 0
449 1 Si 91.275 11.9261 1.61576 0
450 1 Si 94.297 13.1211 1.63805 0
451 1 Si 156.928 37.2526 1.61971 0
452 1 Si 159.762 38.6691 1.61434 0
453 1 Si 168.813 38.4233 1.63653 0
454 1 Si 165.798 39.3726 1.63261 0
455 1 Si 173.959 38.4798 1.62935 0
456 1 Si 171.324 40.4061 1.63285 0
457 1 Si 10.6351 14.3986 1.60998 0
458 1 Si 16.1451 14.8885 1.61981 0
459 1 Si 13.2485 16.4288 1.63977 0
460 1 Si 19.213 15.582 1.60979 0
461 1 Si 121.336 39.6156 1.61921 0
462 1 Si 115.784 40.5057 1.64736 0
463 1 Si 118.813 41.9585 1.64564 0
464 1 Si 124.627 38.8709 1.62303 0
465 1 Si 126.333 41.5176 1.63166 0
466 1 Si 129.621 40.9194 1.59184 0
467 1 Si 132.848 40.1543 1.62866 0
468 1 Si 53.1411 13.9851 1.62747 0
469 1 Si 47.8004 15.4721 1.62682 0
470 1 Si 50.8257 16.2494 1.62733 0
471 1 Si 58.8322 12.743 1.62664 0
472 1 Si 56.2305 14.8053 1.63226 0
473 1 Si 151.268 38.9359 1.62463 0
474 1 Si 154.428 39.1492 1.63856 0
475 1 Si 61.9422 13.9916 1.64302 0
476 1 Si 180.203 38.1149 1.62604 0
477 1 Si 177.15 39.72 1.63975 0
478 1 Si 89.5371 14.5873 1.62655 0
479 1 Si 86.4746 15.2861 1.62837 0
480 1 Si 186.395 38.0538 1.65173 0
481 1 Si 183.361 39.5609 1.63401 0
482 1 Si 192.3 37.7613 1.63713 0
483 1 Si 189.38 39.5836 1.63595 0
484 1 Si 198.174 37.6637 1.62168 0
485 1 Si 195.216 39.3621 1.65303 0
486 1 Si 201.406 38.2946 1.61337 0
487 1 Si 30.3195 18.2885 1.62866 0
488 1 Si 27.5239 19.8027 1.60178 0
489 1 Si 105.527 39.0822 1.62491 0
490 1 Si 102.412 39.885 1.61913 0
491 1 Si 101.696 33.5034 1.60502 0
492 1 Si 98.9499 35.4628 1.62567 0
493 1 Si 99.4591 38.55 1.62637 0
494 1 Si 110.48 40.3629 1.62903 0
495 1 Si 107.573 41.6884 1.63439 0
496 1 Si 35.6008 17.4521 1.62076 0
497 1 Si 33.251 19.7027 1.64159 0
498 1 Si 113.106 42.4753 1.63459 0
499 1 Si 38.6956 18.2591 1.61662 0
500 1 Si 45.1255 17.172 1.61699 0
501 1 Si 145.961 39.9843 1.62184 0
502 1 Si 140.59 41.0084 1.61701 0
503 1 Si 143.697 42.2926 1.62676 0
504 1 Si 149.07 41.2456 1.62427 0
505 1 Si 68.3467 17.2213 1.62626 0
506 1 Si 62.0916 17.3235 1.6219 0
507 1 Si 67.1801 20.4458 1.61873 0
508 1 Si 63.9759 20.0486 1.63821 0
509 1 Si 71.5428 17.5914 1.61881 0
510 1 Si 80.3227 16.0837 1.62699 0
511 1 Si 77.2177 16.5954 1.62782 0
512 1 Si 158.989 41.8822 1.62085 0
513 1 Si 155.791 41.9971 1.61947 0
514 1 Si 165.212 42.6888 1.62271 0
515 1 Si 159.815 45.135 1.62331 0
516 1 Si 163.043 45.2235 1.62789 0
517 1 Si 94.4025 16.3005 1.58383 0
518 1 Si 91.3751 17.0494 1.63008 0
519 1 Si 170.923 43.6888 1.61771 0
520 1 Si 167.842 44.5753 1.61325 0
521 1 Si 95.2084 19.3512 1.6335 0
522 1 Si 98.2138 19.9634 1.62519 0
523 1 Si 177.669 42.9788 1.6214 0
524 1 Si 172.816 46.4657 1.627 0
525 1 Si 175.893 45.6992 1.62321 0
526 1 Si 13.3195 19.7144 1.64561 0
527 1 Si 10.3176 21.1289 1.60087 0
528 1 Si 2.86788 40.8069 1.64439 0
529 1 Si 202.346 41.2387 1.6372 0
530 1 Si 205.405 42.0467 1.6277 0
531 1 Si 5.09443 43.5573 1.63158 0
532 1 Si 7.84748 36.6752 1.62993 0
533 1 Si 9.28539 39.7229 1.6399 0
534 1 Si 8.33374 42.9188 1.62481 0
535 1 Si 20.879 18.2631 1.60153 0
536 1 Si 16.326 21.3365 1.6169 0
537 1 Si 19.7264 21.2092 1.63122 0
538 1 Si 183.63 42.8495 1.64531 0
539 1 Si 180.69 44.1851 1.62564 0
540 1 Si 194.789 42.6672 1.62426 0
541 1 Si 200.344 43.6379 1.62257 0
542 1 Si 197.376 44.5254 1.64251 0
543 1 Si 124.571 44.4026 1.61095 0
544 1 Si 130.054 43.9889 1.62313 0
545 1 Si 127.433 45.6559 1.64105 0
546 1 Si 118.993 45.4441 1.6201 0
547 1 Si 122.072 46.7186 1.64813 0
548 1 Si 135.039 42.6476 1.61717 0
549 1 Si 132.997 45.0519 1.62265 0
550 1 Si 50.9391 19.4535 1.64505 0
551 1 Si 45.3501 20.3904 1.63713 0
552 1 Si 48.458 21.5685 1.63928 0
553 1 Si 56.2996 18.027 1.63208 0
554 1 Si 53.9808 20.3533 1.62875 0
555 1 Si 138.235 43.3969 1.64054 0
556 1 Si 59.3112 18.8796 1.63295 0
557 1 Si 150.524 44.1494 1.61916 0
558 1 Si 153.733 44.3771 1.62204 0
559 1 Si 85.1616 18.2528 1.6373 0
560 1 Si 81.9854 18.7438 1.61574 0
561 1 Si 90.3231 19.9558 1.61929 0
562 1 Si 87.2269 20.6771 1.63221 0
563 1 Si 189.211 42.9562 1.62547 0
564 1 Si 186.403 44.7612 1.64775 0
565 1 Si 192.042 44.549 1.6348 0
566 1 Si 205.335 45.1467 1.62142 0
567 1 Si 202.386 45.971 1.6167 0
568 1 Si 107.161 44.993 1.63439 0
569 1 Si 103.834 45.4943 1.63683 0
570 1 Si 101.672 43.0086 1.63458 0
571 1 Si 113.154 45.9782 1.62385 0
572 1 Si 109.862 47.2648 1.62731 0
573 1 Si 33.9252 22.9629 1.64839 0
574 1 Si 28.0007 23.2984 1.6343 0
575 1 Si 31.2189 24.9883 1.63027 0
576 1 Si 39.5225 21.5088 1.64541 0
577 1 Si 37.1776 23.9875 1.63241 0
578 1 Si 116.352 47.7601 1.62569 0
579 1 Si 42.7206 22.3788 1.65171 0
580 1 Si 139.133 46.602 1.62875 0
581 1 Si 133.229 48.1195 1.62127 0
582 1 Si 138.241 49.7315 1.61931 0
583 1 Si 135.26 50.4978 1.62962 0
584 1 Si 73.3035 20.4163 1.65789 0
585 1 Si 68.745 23.6576 1.61447 0
586 1 Si 72.1304 23.5569 1.62015 0
587 1 Si 144.531 45.5376 1.61957 0
588 1 Si 142.124 47.5582 1.61468 0
589 1 Si 76.4711 19.6763 1.62745 0
590 1 Si 149.647 47.2533 1.62289 0
591 1 Si 146.619 48.1291 1.62654 0
592 1 Si 79.5066 20.8433 1.6319 0
593 1 Si 154.664 47.3645 1.60782 0
594 1 Si 157.762 47.9916 1.58748 0
595 1 Si 92.9694 21.6088 1.61568 0
596 1 Si 167.448 47.7085 1.6097 0
597 1 Si 164.339 48.2247 1.5884 0
598 1 Si 169.266 50.3666 1.61964 0
599 1 Si 172.424 49.9061 1.63265 0
600 1 Si 16.2751 24.5021 1.62006 0
601 1 Si 13.5545 26.05 1.61614 0
602 1 Si 180.66 47.3412 1.64447 0
603 1 Si 177.686 48.3443 1.6202 0
604 1 Si 186.238 48.1877 1.61973 0
605 1 Si 183.227 49.1947 1.63033 0
606 1 Si 21.9342 23.782 1.60052 0
607 1 Si 19.2693 25.6234 1.61889 0
608 1 Si 192.079 47.8411 1.62309 0
609 1 Si 187.745 51.32 1.6262 0
610 1 Si 190.841 50.9015 1.62867 0
611 1 Si 25.169 25.1618 1.63758 0
612 1 Si 1.60075 47.8218 1.62541 0
613 1 Si 4.66711 47.0599 1.62392 0
614 1 Si 197.417 47.6974 1.61635 0
615 1 Si 194.816 49.3111 1.61908 0
616 1 Si 122.447 50.1465 1.63316 0
617 1 Si 127.7 48.7077 1.62631 0
618 1 Si 125.524 50.913 1.60897 0
619 1 Si 49.2652 24.8043 1.63037 0
620 1 Si 43.4782 25.5272 1.61622 0
621 1 Si 46.5591 26.5429 1.6324 0
622 1 Si 117.124 51.5532 1.62763 0
623 1 Si 120.349 52.8415 1.62114 0
624 1 Si 54.3551 23.5851 1.61952 0
625 1 Si 52.3818 26.1847 1.61389 0
626 1 Si 130.596 49.6944 1.62022 0
627 1 Si 59.4459 21.9643 1.61659 0
628 1 Si 57.3776 24.2828 1.64102 0
629 1 Si 62.4191 22.8649 1.59938 0
630 1 Si 152.12 49.2577 1.60411 0
631 1 Si 86.4058 23.7487 1.6417 0
632 1 Si 80.0911 23.9541 1.62465 0
633 1 Si 83.2774 24.867 1.60839 0
634 1 Si 92.4212 24.7006 1.6427 0
635 1 Si 89.2163 25.4775 1.62739 0
636 1 Si 99.0956 22.9857 1.61556 0
637 1 Si 32.3704 28.3459 1.61406 0
638 1 Si 25.6964 28.6136 1.62599 0
639 1 Si 27.5697 31.6571 1.63159 0
640 1 Si 30.7754 31.2785 1.61796 0
641 1 Si 202.428 49.0935 1.62377 0
642 1 Si 199.512 50.05 1.61785 0
643 1 Si 38.081 27.3141 1.62657 0
644 1 Si 35.5569 29.5778 1.61398 0
645 1 Si 41.3831 28.0493 1.62978 0
646 1 Si 205.262 50.5023 1.6248 0
647 1 Si 109.335 50.6957 1.62862 0
648 1 Si 103.374 51.4867 1.62205 0
649 1 Si 102.359 48.3993 1.63635 0
650 1 Si 106.449 52.4111 1.611 0
651 1 Si 111.544 53.2307 1.60933 0
652 1 Si 114.813 54.1381 1.64322 0
653 1 Si 62.0686 26.0084 1.64042 0
654 1 Si 59.0046 26.9535 1.62419 0
655 1 Si 67.5945 26.9101 1.63045 0
656 1 Si 64.5069 27.9792 1.61534 0
657 1 Si 77.6002 26.1621 1.61313 0
658 1 Si 74.1623 26.3382 1.62864 0
659 1 Si 142.61 50.7219 1.63241 0
660 1 Si 139.972 52.4579 1.60805 0
661 1 Si 82.8377 28.0698 1.62652 0
662 1 Si 79.608 28.7718 1.62114 0
663 1 Si 131.108 52.7151 1.61035 0
664 1 Si 134.119 53.433 1.6328 0
665 1 Si 145.699 51.3049 1.62295 0
666 1 Si 98.2057 25.9741 1.6363 0
667 1 Si 95.0288 26.6145 1.61981 0
668 1 Si 164.35 51.4552 1.62707 0
669 1 Si 155.979 51.029 1.61934 0
670 1 Si 161.341 52.6087 1.614 0
671 1 Si 158.121 53.2945 1.63681 0
672 1 Si 167.35 53.0005 1.62785 0
673 1 Si 177.254 51.456 1.63397 0
674 1 Si 174.341 52.7485 1.61826 0
675 1 Si 12.8702 29.0817 1.59678 0
676 1 Si 182.847 52.3017 1.61804 0
677 1 Si 179.86 53.2053 1.63388 0
678 1 Si 19.816 28.6859 1.62351 0
679 1 Si 14.7087 31.573 1.6209 0
680 1 Si 17.7768 31.0931 1.62795 0
681 1 Si 184.45 55.0431 1.63602 0
682 1 Si 187.551 54.8697 1.62785 0
683 1 Si 195.085 52.4283 1.61743 0
684 1 Si 192.348 53.8723 1.64536 0
685 1 Si 22.7864 29.7835 1.63508 0
686 1 Si 127.972 52.8816 1.62397 0
687 1 Si 121.524 56.275 1.65668 0
688 1 Si 127.673 55.8573 1.637 0
689 1 Si 124.662 56.6915 1.59913 0
690 1 Si 152.716 52.3515 1.627 0
691 1 Si 146.753 54.3996 1.64192 0
692 1 Si 150.128 54.7295 1.63016 0
693 1 Si 46.5663 29.6973 1.62665 0
694 1 Si 43.4667 30.6353 1.60495 0
695 1 Si 54.1266 29.2797 1.62646 0
696 1 Si 49.0193 31.7791 1.60556 0
697 1 Si 52.3062 32.0461 1.62274 0
698 1 Si 57.6017 29.8006 1.63227 0
699 1 Si 72.7174 29.471 1.62994 0
700 1 Si 69.2822 29.7664 1.61563 0
701 1 Si 85.5912 29.8311 1.61688 0
702 1 Si 88.5415 28.546 1.6263 0
703 1 Si 198.157 52.8875 1.62774 0
704 1 Si 100.742 28.0313 1.62933 0
705 1 Si 0.177687 53.7154 1.64252 0
706 1 Si 199.493 55.6927 1.62105 0
707 1 Si 202.782 55.4306 1.63491 0
708 1 Si 22.6403 32.8706 1.60113 0
709 1 Si 24.1429 35.629 1.64135 0
710 1 Si 27.2104 35.2153 1.61955 0
711 1 Si 3.15589 55.2554 1.626 0
712 1 Si 6.57159 49.9446 1.617 0
713 1 Si 6.06948 53.5044 1.6322 0
714 1 Si 35.7545 33.005 1.62369 0
715 1 Si 32.5792 34.1131 1.60991 0
716 1 Si 100.938 53.641 1.61564 0
717 1 Si 99.2368 49.0047 1.60757 0
718 1 Si 98.2877 52.0237 1.63462 0
719 1 Si 109.861 56.005 1.61532 0
720 1 Si 106.612 55.7043 1.61857 0
721 1 Si 44.2588 33.8332 1.63391 0
722 1 Si 38.3686 35.2775 1.61581 0
723 1 Si 41.7595 35.935 1.61584 0
724 1 Si 115.32 57.6347 1.61284 0
725 1 Si 120.94 59.7347 1.62874 0
726 1 Si 117.616 60.4597 1.62883 0
727 1 Si 63.6163 31.1124 1.60394 0
728 1 Si 60.2786 31.9652 1.6356 0
729 1 Si 135.596 56.2205 1.62617 0
730 1 Si 138.828 55.532 1.63058 0
731 1 Si 78.3351 31.787 1.62921 0
732 1 Si 74.8704 32.1065 1.62995 0
733 1 Si 130.163 57.7654 1.60806 0
734 1 Si 133.302 58.5676 1.65468 0
735 1 Si 86.5094 32.9623 1.62809 0
736 1 Si 80.6624 34.3077 1.62766 0
737 1 Si 84.03 35.0784 1.62644 0
738 1 Si 144.476 56.8387 1.61344 0
739 1 Si 141.319 57.5288 1.61404 0
740 1 Si 94.1183 29.6652 1.63849 0
741 1 Si 91.0307 30.5071 1.63775 0
742 1 Si 161.77 55.6115 1.59198 0
743 1 Si 156.323 56.0463 1.60691 0
744 1 Si 159.165 57.1831 1.60159 0
745 1 Si 99.6843 31.0187 1.62275 0
746 1 Si 96.5242 31.7194 1.62489 0
747 1 Si 168.3 56.3125 1.61901 0
748 1 Si 162.931 58.4265 1.65162 0
749 1 Si 165.978 58.6829 1.60385 0
750 1 Si 174.377 56.1814 1.63997 0
751 1 Si 171.457 57.7886 1.62239 0
752 1 Si 179.873 56.2979 1.614 0
753 1 Si 177.241 58.0196 1.6228 0
754 1 Si 9.80875 34.115 1.61213 0
755 1 Si 182.709 57.6653 1.61428 0
756 1 Si 13.0159 34.2732 1.62919 0
757 1 Si 192.014 57.1772 1.61391 0
758 1 Si 188.873 58.1489 1.61459 0
759 1 Si 112.107 58.3485 1.6205 0
760 1 Si 19.6236 33.5582 1.59966 0
761 1 Si 197.612 58.4262 1.62951 0
762 1 Si 194.449 59.5126 1.63287 0
763 1 Si 127.106 58.7021 1.62617 0
764 1 Si 127.005 61.7283 1.61481 0
765 1 Si 123.67 62.1116 1.59069 0
766 1 Si 47.5625 34.6227 1.59248 0
767 1 Si 150.747 57.9783 1.61344 0
768 1 Si 145.235 59.9517 1.59923 0
769 1 Si 148.476 60.5588 1.62768 0
770 1 Si 153.991 58.2943 1.64573 0
771 1 Si 53.28 35.2585 1.622 0
772 1 Si 50.2027 36.7035 1.6242 0
773 1 Si 66.8122 32.1568 1.62944 0
774 1 Si 67.3046 35.4007 1.62091 0
775 1 Si 73.5295 35.2033 1.64884 0
776 1 Si 70.435 36.5638 1.61528 0
777 1 Si 89.8271 33.4572 1.61811 0
778 1 Si 202.93 58.5268 1.6177 0
779 1 Si 200.225 60.1921 1.62023 0
780 1 Si 19.6216 36.6046 1.62687 0
781 1 Si 22.3097 38.1821 1.59331 0
782 1 Si 0.118479 60.2388 1.63986 0
783 1 Si 2.95831 58.666 1.61942 0
784 1 Si 31.6663 37.4362 1.64324 0
785 1 Si 28.4098 38.4933 1.61847 0
786 1 Si 103.919 57.7863 1.62462 0
787 1 Si 100.668 56.7982 1.61671 0
788 1 Si 110.974 61.3197 1.62969 0
789 1 Si 107.707 62.0395 1.60581 0
790 1 Si 104.478 61.0059 1.63224 0
791 1 Si 37.2787 38.3351 1.61467 0
792 1 Si 34.2256 39.5556 1.63009 0
793 1 Si 42.7716 39.1501 1.62565 0
794 1 Si 39.6904 40.4427 1.62079 0
795 1 Si 59.4372 35.08 1.61387 0
796 1 Si 56.5003 36.5074 1.61772 0
797 1 Si 113.22 63.7145 1.61214 0
798 1 Si 116.553 63.8649 1.62397 0
799 1 Si 64.8931 37.7398 1.61637 0
800 1 Si 61.5261 37.5538 1.60357 0
801 1 Si 142.08 60.5943 1.62413 0
802 1 Si 133.749 61.8012 1.63529 0
803 1 Si 140.451 63.3141 1.62481 0
804 1 Si 137.017 63.4053 1.60812 0
805 1 Si 75.8402 37.4674 1.63728 0
806 1 Si 78.9687 37.026 1.62153 0
807 1 Si 130.337 62.5441 1.61636 0
808 1 Si 95.6496 34.7747 1.61466 0
809 1 Si 92.3511 35.6156 1.6518 0
810 1 Si 160.315 60.0221 1.61223 0
811 1 Si 171.892 61.1825 1.64262 0
812 1 Si 165.801 61.9212 1.60789 0
813 1 Si 168.957 62.4482 1.61926 0
814 1 Si 14.1512 37.1975 1.62514 0
815 1 Si 12.5051 39.8806 1.61382 0
816 1 Si 154.902 61.3666 1.64634 0
817 1 Si 157.997 62.0353 1.63761 0
818 1 Si 179.064 60.8437 1.62963 0
819 1 Si 174.383 63.7396 1.62244 0
820 1 Si 177.767 63.8094 1.62672 0
821 1 Si 182.396 60.7978 1.62547 0
822 1 Si 17.0692 38.2356 1.61866 0
823 1 Si 107.965 65.2546 1.62483 0
824 1 Si 105.397 67.3086 1.62267 0
825 1 Si 102.186 66.3163 1.62554 0
826 1 Si 101.807 63.094 1.61673 0
827 1 Si 111.106 66.1776 1.62243 0
828 1 Si 188.01 61.7059 1.63858 0
829 1 Si 184.779 63.1105 1.62633 0
830 1 Si 193.624 62.8063 1.62809 0
831 1 Si 190.509 64.0153 1.61815 0
832 1 Si 125.62 64.9507 1.6255 0
833 1 Si 129.102 65.4169 1.63233 0
834 1 Si 117.683 67.2692 1.63704 0
835 1 Si 124.281 67.8769 1.62162 0
836 1 Si 120.945 68.5879 1.62716 0
837 1 Si 49.3042 39.889 1.63284 0
838 1 Si 45.8445 40.789 1.63102 0
839 1 Si 149.578 63.7223 1.60311 0
840 1 Si 152.8 63.7936 1.61151 0
841 1 Si 142.766 65.8805 1.59187 0
842 1 Si 148.575 66.9703 1.6237 0
843 1 Si 145.541 67.8906 1.62146 0
844 1 Si 58.6205 39.0208 1.62414 0
845 1 Si 58.6799 42.252 1.62445 0
846 1 Si 52.0643 41.9763 1.62103 0
847 1 Si 55.3727 43.1159 1.60433 0
848 1 Si 70.0187 39.8642 1.6309 0
849 1 Si 66.7223 40.5103 1.62101 0
850 1 Si 75.5083 40.6811 1.63362 0
851 1 Si 72.6515 42.0357 1.64158 0
852 1 Si 85.3048 38.1498 1.61415 0
853 1 Si 80.1479 39.9936 1.61699 0
854 1 Si 83.2 40.5902 1.61461 0
855 1 Si 91.3159 38.7087 1.63921 0
856 1 Si 88.1739 39.6941 1.63343 0
857 1 Si 200.983 63.239 1.6298 0
858 1 Si 195.619 65.4335 1.63497 0
859 1 Si 198.909 65.7044 1.62983 0
860 1 Si 204.236 63.2087 1.62276 0
861 1 Si 21.0964 41.1075 1.64999 0