LAMMPS data file via write_data, version 2 Aug 2023, timestep = 208, units = metal

15528 atoms
2 atom types

8.68862151224815 196.34943512695133 xlo xhi
6.067330199928297 170.32380589160655 ylo yhi
-100 100 zlo zhi

Masses

1 28.085
2 15.999

Atoms # full

6611 1 1 0 10.868838436108785 6.441682865336964 -1.6506826204439093 0 0 0
9299 1 2 0 11.05479729190987 7.954531552851548 -2.2547001845476924 0 0 0
6606 1 1 0 11.150173202548888 9.47188359295586 -1.6484565462801617 0 0 0
9297 1 2 0 9.836431966679934 10.237217156453683 -2.2714986469949343 0 0 0
9298 1 2 0 12.524716843931882 10.153271606647591 -2.247143918669014 0 0 0
6608 1 1 0 13.784288102576864 11.042964240405096 -1.6552205595129221 0 0 0
13078 1 2 0 13.753214363163355 10.987711717467587 -3.12463767513051e-07 0 0 0
13076 1 2 0 11.154447242769791 9.490037418006478 -5.740478494387696e-07 0 0 0
9309 1 2 0 15.578534834146968 7.961870497990611 -1.507902596829856 0 0 0
6614 1 1 0 16.23175797956349 6.4433107651653625 -1.5352014789065973 0 0 0
9312 1 2 0 17.7192041336985 6.37715538887178 -2.2658265577580767 0 0 0
6848 1 1 0 19.252117548216237 6.125982226644088 -1.6476048159020686 0 0 0
9302 1 2 0 15.190601186993028 10.460663966814042 -2.321992334934809 0 0 0
6613 1 1 0 16.236507085636145 9.462329748755351 -1.5252614439215546 0 0 0
9310 1 2 0 17.757379131353115 9.239555652127708 -2.1628777459819775 0 0 0
6665 1 1 0 18.970211954180503 10.25226810660727 -1.6426712386647537 0 0 0
13135 1 2 0 19.144813845305812 10.300258446661624 -5.885160310558357e-07 0 0 0
13083 1 2 0 16.397279462498037 10.094339492557225 -6.264814079057951e-08 0 0 0
9664 1 2 0 20.423776730212655 7.148672462930558 -2.231310342187837 0 0 0
6847 1 1 0 21.274469640155008 8.456164332076284 -1.651172233699284 0 0 0
9390 1 2 0 20.448079806115537 9.79280868119671 -2.23072773536537 0 0 0
9665 1 2 0 22.835943254987434 8.499447956327822 -2.2139769467961603 0 0 0
6849 1 1 0 24.25977095891439 9.18428840181314 -1.6508939899581396 0 0 0
9667 1 2 0 24.31405436513333 10.7568658802995 -2.2131166230100683 0 0 0
6852 1 1 0 26.4729021850061 6.995778607067569 -1.6490149887200347 0 0 0
9668 1 2 0 25.58704823868354 8.317819187219412 -2.193864484011214 0 0 0
9672 1 2 0 28.05982493606589 6.897963914091375 -2.1984788100541763 0 0 0
6860 1 1 0 29.64598544008234 7.010784006608896 -1.6486476364848637 0 0 0
9683 1 2 0 30.257932653908146 8.404388124796418 -2.266593359154879 0 0 0
9680 1 2 0 29.507422339794797 10.828121244177169 -2.1858947238394335 0 0 0
6859 1 1 0 30.743242303449037 9.84010493877937 -1.652862902476063 0 0 0
13322 1 2 0 26.514259945985273 7.048178352809046 -1.339081748035306e-06 0 0 0
13330 1 2 0 29.597417562898578 6.93588566486929 -9.341649184333161e-07 0 0 0
9684 1 2 0 32.27876208384903 10.122432701094828 -2.233085062623578 0 0 0
6864 1 1 0 33.6666844996592 10.813897147560441 -1.6490749858091742 0 0 0
9692 1 2 0 35.03626486217648 10.078907783111765 -2.2161236970262888 0 0 0
13329 1 2 0 30.811553138291554 9.841570363512277 -2.5156371875646067e-07 0 0 0
9696 1 2 0 36.98972571757514 8.425893985862956 -2.2271898192427617 0 0 0
6872 1 1 0 37.34554950144385 6.923946116936896 -1.6488998533797625 0 0 0
9705 1 2 0 38.88357689664338 6.668138023058767 -2.2317786287112913 0 0 0
6881 1 1 0 40.41349927635143 6.917146641869695 -1.6376087693101178 0 0 0
9714 1 2 0 41.35503803704866 8.16277886150952 -2.220939177583465 0 0 0
6867 1 1 0 36.581542983053886 9.91438263489374 -1.6489794055693159 0 0 0
9695 1 2 0 37.6514432862853 11.082476930144729 -2.20591535000911 0 0 0
9698 1 2 0 40.285671651190675 10.501805370316497 -2.2091411098409184 0 0 0
6878 1 1 0 41.61369569830498 9.700491489720003 -1.6474807139874028 0 0 0
13348 1 2 0 41.68333689265766 9.73065531798528 5.016517844119607e-07 0 0 0
6886 1 1 0 45.24621464473639 6.498958507851919 -1.6426269048033038 0 0 0
9724 1 2 0 45.71688941285984 8.025879942082092 -2.1782070528533817 0 0 0
9713 1 2 0 43.02397784394119 10.356448479508755 -2.2452940394655485 0 0 0
9716 1 2 0 45.78503998576272 10.604246816272347 -2.157884999875889 0 0 0
6885 1 1 0 46.68296771522693 9.305734097614879 -1.6427322419796915 0 0 0
6879 1 1 0 44.33362243176936 11.213816344641792 -1.6457218471584136 0 0 0
13349 1 2 0 44.22475768106111 11.189002130476645 6.055317365684305e-07 0 0 0
9734 1 2 0 51.36794750736364 6.993835651600863 -2.2577396336862208 0 0 0
9725 1 2 0 48.26851030683061 9.58624357488139 -2.190179058807002 0 0 0
6892 1 1 0 49.70900142839151 10.313025519983436 -1.6492248189217538 0 0 0
9733 1 2 0 51.13421282528486 9.571948954335658 -2.157173156696004 0 0 0
6890 1 1 0 52.150815345981236 8.334216958002548 -1.6501435704342466 0 0 0
13362 1 2 0 49.65668384962997 10.27232642801632 -1.1603036414452153e-07 0 0 0
13360 1 2 0 52.21054044328299 8.334903606188789 -4.962746088181327e-07 0 0 0
6891 1 1 0 55.223283641443714 7.690592283541066 -1.6436218632145918 0 0 0
9736 1 2 0 55.213559891882184 6.131172311796284 -2.202200617372084 0 0 0
9735 1 2 0 56.73178886768486 8.236003718850442 -2.1747834999309283 0 0 0
9732 1 2 0 53.76500476199282 8.378603559941665 -2.183391653720192 0 0 0
6893 1 1 0 58.334066479773924 8.313408922644228 -1.6472785285114286 0 0 0
13363 1 2 0 58.29976184069924 8.18995201068803 -3.134460235497524e-07 0 0 0
9739 1 2 0 59.51946862069217 7.24619537546685 -2.20581707339834 0 0 0
6904 1 1 0 60.63584058604764 6.118434252816528 -1.6315184247279382 0 0 0
9738 1 2 0 58.87860628658307 9.769098598247522 -2.20385668638794 0 0 0
6894 1 1 0 59.019959333065685 11.314557966065147 -1.647015098599276 0 0 0
9765 1 2 0 63.28381838143437 11.364527231362835 -2.20029876452854 0 0 0
9770 1 2 0 64.90903332203573 6.354234942797132 -2.183817983603515 0 0 0
6912 1 1 0 65.77975950811869 7.661128063941315 -1.6481657309902176 0 0 0
9771 1 2 0 67.35696905927715 7.466922003076149 -2.227167493466584 0 0 0
6915 1 1 0 68.91504699010844 7.5780974226202495 -1.58225593382424 0 0 0
9769 1 2 0 64.86473279186403 8.978716634762693 -2.1565184136092395 0 0 0
6913 1 1 0 64.67034239851999 10.563394982049614 -1.6488312731736066 0 0 0
9772 1 2 0 66.064444730788 11.231533158909043 -2.2601551713064327 0 0 0
13382 1 2 0 65.86961067964533 7.725553970391177 -2.362910653996688e-09 0 0 0
9774 1 2 0 69.34070486712086 9.143853545053645 -1.80142877406605 0 0 0
13385 1 2 0 68.79009958727616 7.109560293336048 -3.8849782421203136e-07 0 0 0
13383 1 2 0 64.61297425554858 10.639990597325076 -2.174046049896167e-07 0 0 0
9775 1 2 0 70.20764196363017 6.722310074530566 -2.2370839545486922 0 0 0
9780 1 2 0 73.11358457390324 6.296822994442297 -2.1490686587319523 0 0 0
6925 1 1 0 74.33540944854964 7.383869933707849 -1.6463440117618124 0 0 0
6916 1 1 0 70.01679091634692 10.622573797043353 -1.5873689724298066 0 0 0
9777 1 2 0 71.5558551372526 10.627375022313405 -2.2544585779759907 0 0 0
6924 1 1 0 73.07444776492068 10.246307717152261 -1.6508833951184794 0 0 0
9788 1 2 0 73.68426618639425 8.807617679342004 -2.2053736588608666 0 0 0
9789 1 2 0 74.17644216161393 11.33589469426518 -2.221416322990008 0 0 0
13386 1 2 0 70.20852475835056 11.031293108387763 -2.1427953983165795e-07 0 0 0
13394 1 2 0 73.0160993418662 10.225809521664488 2.823314148074042e-07 0 0 0
9790 1 2 0 75.97428933506586 7.278545868909059 -2.1518088616234605 0 0 0
6933 1 1 0 77.62147884082711 7.115647013378389 -1.6500461903272667 0 0 0
9800 1 2 0 78.84511503163782 8.24640195850918 -2.115866920747568 0 0 0
9799 1 2 0 79.24956141067507 10.922871713199124 -2.1828230052790953 0 0 0
6931 1 1 0 79.95826496044396 9.499293884875408 -1.6473621541235655 0 0 0
13403 1 2 0 77.5822551345699 7.16846913881604 -7.651368454235602e-07 0 0 0
6938 1 1 0 85.75803946516248 8.083495624223447 -1.6539181123700786 0 0 0
9811 1 2 0 85.62175206671296 6.567877174856974 -2.312318680679732 0 0 0
9801 1 2 0 81.62599235309808 9.61326247687682 -2.1470006604027168 0 0 0
6934 1 1 0 83.25404332048124 9.924291016624496 -1.6447923201194417 0 0 0
9805 1 2 0 84.33545197936196 8.766822196556802 -2.1970946837821184 0 0 0
9804 1 2 0 84.13010947358553 11.289260078356708 -2.1298469885219804 0 0 0
13408 1 2 0 85.7451669027132 8.14581130874592 -3.060573321628443e-08 0 0 0
13404 1 2 0 83.14917272742568 9.954440581002784 -1.1764640700724223e-07 0 0 0
9812 1 2 0 87.29429035802717 8.642956121867007 -2.127664613972995 0 0 0
9825 1 2 0 88.81051356470157 6.387855902013192 -2.282744111297265 0 0 0
6946 1 1 0 88.75430135811902 7.929955449013457 -1.6518780527746193 0 0 0
9826 1 2 0 90.18144151239477 8.628713270819816 -2.1981803106001054 0 0 0
9835 1 2 0 92.5594180260534 7.140103416416235 -2.2279838292246437 0 0 0
9846 1 2 0 95.3486271305358 6.734727255345041 -2.1601292085727457 0 0 0
6960 1 1 0 93.83659433680286 6.249004342841946 -1.655462881695816 0 1 0
6961 1 1 0 96.84002041071157 6.211780839034308 -1.646021019278456 0 0 0
6952 1 1 0 91.76539801291754 8.492900873359654 -1.6504808350574562 0 0 0
9832 1 2 0 92.70934417587168 9.727396557657388 -2.22190603971776 0 0 0
6950 1 1 0 93.40959993070331 11.112389170079252 -1.6460226872389023 0 0 0
9833 1 2 0 94.94879520114145 11.360808087178395 -2.2327855167748054 0 0 0
6955 1 1 0 96.50783090988372 11.325442606878939 -1.6510007152850263 0 0 0
13431 1 2 0 96.84526360201504 6.14172641721574 -6.581547154302107e-07 0 0 0
13420 1 2 0 93.47185798350718 11.086904595904059 1.1710619539573976e-06 0 0 0
13425 1 2 0 96.46714604892126 11.361855911052945 -1.3110942090506505e-06 0 0 0
9845 1 2 0 97.91313670211099 7.338452747273058 -2.197566737141062 0 0 0
9114 1 2 0 101.3497517731305 6.947281194389364 -2.185023118933167 0 0 0
9840 1 2 0 97.17972630462084 9.935174631094839 -2.2493804004316247 0 0 0
6959 1 1 0 98.26824741364027 8.85622373122233 -1.6483053502382266 0 0 0
9115 1 2 0 99.78384251986111 9.185784274260207 -2.2424388601747296 0 0 0
6501 1 1 0 101.16619320086868 8.504074040446918 -1.6449246233195416 0 0 0
9300 1 2 0 8.86182376006491 12.687374001478036 -2.2088552642013393 0 0 0
9301 1 2 0 13.684336662379758 12.590579012555724 -2.2062581361185565 0 0 0
6609 1 1 0 9.805446042252605 13.923917363307915 -1.649639143538301 0 0 0
9304 1 2 0 9.054944696184958 15.238926894566202 -2.2835470539187477 0 0 0
6610 1 1 0 12.89408259507274 13.924904597167455 -1.6467842997199298 0 0 0
9303 1 2 0 11.349832157141192 13.875424794357473 -2.240758546648932 0 0 0
9305 1 2 0 13.724037185994767 15.215681698920745 -2.2474828497661994 0 0 0
13080 1 2 0 12.857833684533055 13.970756436475927 -9.685679438375334e-08 0 0 0
9389 1 2 0 18.39494309522512 11.679571122122585 -2.2424401799781455 0 0 0
9387 1 2 0 17.67053496046342 14.224625136172634 -2.1891741102667175 0 0 0
6666 1 1 0 18.80154335647194 13.153971071688273 -1.6439108402042575 0 0 0
6661 1 1 0 14.605933830850114 16.481583494426623 -1.6513099230346064 0 0 0
6664 1 1 0 17.563937451099584 15.794293760557677 -1.645769236272502 0 0 0
9383 1 2 0 16.15966615133557 16.429204462488894 -2.2480240873427912 0 0 0
9388 1 2 0 18.91411510821672 16.581889145443284 -2.2078122653135694 0 0 0
6850 1 1 0 24.232822703412335 12.322388060121364 -1.6488953520646683 0 0 0
9669 1 2 0 22.93590665647402 13.167080879126118 -2.2638134878007627 0 0 0
6851 1 1 0 21.70286863958839 14.074336019076403 -1.643349043136731 0 0 0
9391 1 2 0 20.326958921444934 13.376191816664697 -2.21744716765213 0 0 0
6713 1 1 0 20.476301394744137 16.76453662234356 -1.6487460209193951 0 0 0
9463 1 2 0 21.608616638950338 15.656033528614017 -2.1695011934909463 0 0 0
13320 1 2 0 24.189480693911005 12.287745644180864 -3.133426115320134e-07 0 0 0
13321 1 2 0 21.807533740111328 14.051031797529573 2.835223118223627e-07 0 0 0
9670 1 2 0 25.53206789355539 13.165482140477172 -2.2142505894987745 0 0 0
6857 1 1 0 29.369078661623366 12.377866482606418 -1.6309289064042436 0 0 0
9679 1 2 0 28.13137767580019 13.251571583585868 -2.285786567968193 0 0 0
6858 1 1 0 26.80902767146527 14.040722167548696 -1.6512931784259717 0 0 0
9682 1 2 0 26.68204685637039 15.604277594146966 -2.217513255725535 0 0 0
6862 1 1 0 30.000306675491064 16.978369477185762 -1.644156330521531 0 0 0
9686 1 2 0 30.151005896074462 15.446611750865488 -2.2385448098845915 0 0 0
13328 1 2 0 26.8396721305995 14.073058932771017 -1.1605364132074836e-07 0 0 0
13327 1 2 0 29.146324720978427 12.383160115070314 -6.000410048118029e-07 0 0 0
9681 1 2 0 30.86894823567666 12.955048883852502 -2.06229090483139 0 0 0
9691 1 2 0 33.78557201983175 12.326016036347996 -2.2926700058439895 0 0 0
6861 1 1 0 31.33681884906732 14.47655804633075 -1.6339279023159832 0 0 0
9687 1 2 0 32.85290174596399 14.792340636585449 -2.2034170851671013 0 0 0
6865 1 1 0 34.0726418556904 13.799922922195346 -1.649001982121458 0 0 0
9693 1 2 0 35.51321808691821 14.38546181948293 -2.198746607177137 0 0 0
6870 1 1 0 36.00850660329455 15.864825044910607 -1.6436440617068435 0 0 0
9702 1 2 0 34.86474389600871 16.959280706661705 -2.14872638562485 0 0 0
13340 1 2 0 36.12694791672531 15.88040200991636 -3.800876368725207e-08 0 0 0
13331 1 2 0 31.36067418417473 14.631852356856218 -8.688061967308338e-07 0 0 0
6868 1 1 0 39.15311064123729 11.562119138105407 -1.646614723644049 0 0 0
9697 1 2 0 39.66141578785733 13.038391418980984 -2.2207587945875633 0 0 0
6869 1 1 0 40.710303748022135 14.202634678540356 -1.6460293945697777 0 0 0
9699 1 2 0 40.09671158265551 15.617690180326948 -2.207525379234277 0 0 0
9701 1 2 0 37.48451845909346 16.15046838471574 -2.299848767931178 0 0 0
6871 1 1 0 38.92609402572461 16.618084301666368 -1.6494092428233436 0 0 0
13341 1 2 0 38.87393668119891 16.64334184930054 -2.169199150654397e-07 0 0 0
9715 1 2 0 44.413156932590525 12.776324166908026 -2.1961090038164515 0 0 0
9700 1 2 0 42.261196705064755 14.239505832989268 -2.23200251667957 0 0 0
6880 1 1 0 43.819128444384766 14.224470669460533 -1.6474973218582452 0 0 0
9717 1 2 0 44.761592591949 15.484924773140342 -2.2113301964454566 0 0 0
6967 1 1 0 45.85988946078963 16.622850554715484 -1.6503301041134764 0 0 0
9737 1 2 0 49.841403444354924 11.902116049141735 -2.179397832771093 0 0 0
9855 1 2 0 47.39309514369256 16.20987486598147 -2.192634588163875 0 0 0
9745 1 2 0 49.71225981953176 14.644198811746021 -2.1929066933891965 0 0 0
6896 1 1 0 50.58352875328632 13.307201448590725 -1.649385165749855 0 0 0
9744 1 2 0 52.183382907936576 13.27865965880565 -2.1795822540189675 0 0 0
6966 1 1 0 48.972997892024104 16.055620279003026 -1.6488741609883755 0 0 0
13436 1 2 0 48.971636577015694 16.03020718165947 -9.298381155795737e-08 0 0 0
13366 1 2 0 50.59016266186483 13.350074892270134 -1.885874361841158e-07 0 0 0
9740 1 2 0 57.65478856169028 12.109008503852262 -2.2062168035847214 0 0 0
6897 1 1 0 53.61655806334736 13.964805407354374 -1.6483850289160795 0 0 0
9742 1 2 0 55.02890687049794 13.217355217185549 -2.1951085076619012 0 0 0
6895 1 1 0 56.620068434642626 13.297098018442203 -1.6466250855611113 0 0 0
9743 1 2 0 57.28961065931153 14.712381430710938 -2.1947534413601097 0 0 0
9746 1 2 0 53.568468280509165 15.522452307632973 -2.215854898882667 0 0 0
13365 1 2 0 56.57760363586442 13.22996486179537 3.293488643326993e-07 0 0 0
13367 1 2 0 53.64766764534571 13.921864568421393 -1.0249473997157462e-07 0 0 0
9741 1 2 0 60.509270959158 11.832071422117465 -2.20310098365227 0 0 0
6909 1 1 0 62.01041134972663 12.332886564571343 -1.648865391638234 0 0 0
9764 1 2 0 62.154401497450024 13.928488929965933 -2.161174362261401 0 0 0
6910 1 1 0 61.48044715177842 15.375047067834213 -1.6502479082432253 0 0 0
6911 1 1 0 58.404426683819686 15.806423639890589 -1.6451604769159196 0 0 0
9766 1 2 0 59.92752153934098 15.534835565234122 -2.2437943008256434 0 0 0
9767 1 2 0 62.34002032652649 16.684878854189716 -2.2218580578976437 0 0 0
13380 1 2 0 61.46487350583053 15.407162637046923 7.829091417292296e-07 0 0 0
9776 1 2 0 68.86965305024877 11.65126217681617 -2.247734308333926 0 0 0
13387 1 2 0 67.40091002231642 11.88317997988669 -1.2736509833241947e-07 0 0 0
6917 1 1 0 67.3559923716459 12.05947107365738 -1.6467851319436837 0 0 0
9778 1 2 0 66.94348281127994 13.599304422648512 -2.1130555588206774 0 0 0
6928 1 1 0 67.80987142193511 14.91315618265877 -1.6391220368577173 0 0 0
9795 1 2 0 67.19161147094351 16.290175038435006 -2.294190213178276 0 0 0
9794 1 2 0 69.32281781485278 14.56616061468776 -2.2168689083407354 0 0 0
9796 1 2 0 71.93161461454656 14.298324356455039 -2.1298845223190814 0 0 0
6929 1 1 0 73.46129942151211 14.76534066214917 -1.6432637566889383 0 0 0
9792 1 2 0 74.70924311453597 13.870806727811322 -2.245277140212373 0 0 0
6930 1 1 0 70.68006386502427 15.287190780985759 -1.6437859060339377 0 0 0
9797 1 2 0 73.57179563632715 16.279466912869463 -2.2719360016551224 0 0 0
9798 1 2 0 70.60469361106553 16.836052488810854 -2.235471183627926 0 0 0
13399 1 2 0 73.58180141072368 14.745822420433317 -1.0466457910404661e-07 0 0 0
6927 1 1 0 75.27945136200498 12.423531367246847 -1.649753786343118 0 0 0
9793 1 2 0 76.80307732661988 12.12904254770268 -2.2349027974640205 0 0 0
6932 1 1 0 78.36349138447831 12.235877086346315 -1.648695069574415 0 0 0
9802 1 2 0 78.96606806214146 13.690036604162174 -2.1947633135570737 0 0 0
6937 1 1 0 79.95540376164071 14.91691332918711 -1.6508168951551414 0 0 0
9810 1 2 0 79.45130316699687 16.422182553789284 -2.2015653015545245 0 0 0
13397 1 2 0 75.32871133539051 12.392428440854083 -1.582410953342445e-07 0 0 0
13407 1 2 0 79.94769042538634 14.951217501529477 -6.099052723741868e-07 0 0 0
6935 1 1 0 85.16878130678022 12.536477448115642 -1.646782266413369 0 0 0
9808 1 2 0 81.4621983571099 14.485875246020258 -2.2337134189694607 0 0 0
6936 1 1 0 82.99033817684379 14.749891832946085 -1.6384340563612518 0 0 0
9806 1 2 0 84.26092208023773 13.833185570492173 -2.2107262392594307 0 0 0
9809 1 2 0 83.30138336451776 16.319395624963427 -2.108162781012209 0 0 0
9807 1 2 0 86.82212832384594 12.630081557388744 -2.136767953262639 0 0 0
6943 1 1 0 88.3150701598793 13.382145525351199 -1.6415432050396819 0 0 0
9820 1 2 0 88.24297037414517 14.920537831893817 -2.241231080418308 0 0 0
9821 1 2 0 89.94656597443279 13.129014641232965 -2.125340224864754 0 0 0
9822 1 2 0 85.96320957258824 16.135871424682108 -2.244294273499595 0 0 0
6944 1 1 0 87.4905896721941 16.24475490096824 -1.649483526363387 0 0 0
13413 1 2 0 88.31556899780321 13.177845684368167 -1.1181716532782869e-06 0 0 0
9831 1 2 0 92.42530836299433 12.29589124532965 -2.215350030225545 0 0 0
6951 1 1 0 91.53012049578827 13.557461266323454 -1.6428805753643958 0 0 0
9834 1 2 0 92.51634625116472 14.858569725204376 -2.165937274198684 0 0 0
6957 1 1 0 93.76714693722639 15.877667606408943 -1.6483327752829797 0 0 0
9842 1 2 0 95.37448005606669 15.828982209701234 -2.1866336752263993 0 0 0
6958 1 1 0 96.88903977657988 16.33671387622872 -1.6446567019231935 0 0 0
13427 1 2 0 93.81725929238154 15.742256026546944 -3.417947586367131e-07 0 0 0
9105 1 2 0 101.75322033387577 11.719557679512166 -2.1658777450347353 0 0 0
9839 1 2 0 97.46341605697938 12.560660857368264 -2.221739498905042 0 0 0
9841 1 2 0 97.93649533141011 15.175978480061563 -2.177429748616736 0 0 0
6956 1 1 0 98.50416095260171 13.726444816065303 -1.646020755996996 0 0 0
9111 1 2 0 100.05481377639761 13.67627305392613 -2.261187735780244 0 0 0
6499 1 1 0 101.53984048508488 13.27408036920643 -1.6411388903488087 0 0 0
9349 1 2 0 9.662452052702323 17.790858965811992 -2.2255999319157747 0 0 0
9382 1 2 0 13.889860772767097 17.846404301396188 -2.2351302413860994 0 0 0
6662 1 1 0 10.187611549899598 19.244007454797487 -1.6471595714349205 0 0 0
9384 1 2 0 11.701068621146064 19.45689293493129 -2.259209049177967 0 0 0
6663 1 1 0 13.220868559941994 19.238611795824333 -1.6495566755708622 0 0 0
9386 1 2 0 14.089419568201249 20.499379135226548 -2.2510429697010106 0 0 0
9385 1 2 0 9.188415675048361 20.438584324918008 -2.207901449026313 0 0 0
13132 1 2 0 10.228855367698307 19.2430627600616 -3.686746767828315e-07 0 0 0
13133 1 2 0 13.209113031933542 19.20522877487156 2.3975597663272047e-07 0 0 0
6709 1 1 0 15.227287366485251 21.523192030717734 -1.6526844487207908 0 0 0
9456 1 2 0 16.684133990529507 21.005728083568886 -2.234372397990594 0 0 0
6715 1 1 0 18.181885248950202 21.360289523268264 -1.6472486934343036 0 0 0
9464 1 2 0 19.213158516824375 20.206514161415104 -2.225593951235854 0 0 0
6714 1 1 0 20.686799496031167 19.72047015336058 -1.6506640230942105 0 0 0
9462 1 2 0 21.011891107839595 18.20990362127432 -2.2343386015190854 0 0 0
9883 1 2 0 24.450125780814393 20.258653703000967 -2.2556036006574467 0 0 0
9465 1 2 0 21.83879175177238 20.738611129145315 -2.2491009180052055 0 0 0
6986 1 1 0 23.290397616822045 21.24525752416364 -1.646556833544974 0 0 0
13333 1 2 0 27.007310344756164 17.06544686821326 -6.946886085501899e-07 0 0 0
6863 1 1 0 27.09014588586458 17.115236253426275 -1.6478083722911054 0 0 0
9688 1 2 0 28.583290714130275 17.567048125284515 -2.22470777757672 0 0 0
13332 1 2 0 29.93681802799006 17.06777083812686 -6.250364919854428e-07 0 0 0
9690 1 2 0 26.15159494795211 18.3458844210799 -2.231301990118614 0 0 0
6985 1 1 0 25.938243172946244 19.886879495455773 -1.650177905354542 0 0 0
9884 1 2 0 27.004857047902455 21.038194940956824 -2.206816315196034 0 0 0
6989 1 1 0 27.712077798534654 22.436156656322904 -1.6512831425254344 0 0 0
9887 1 2 0 29.271696298709184 22.456648423056222 -2.2425525630647973 0 0 0
6988 1 1 0 30.664585641892064 21.796195211355343 -1.6458340340307176 0 0 0
13459 1 2 0 27.700198847833427 22.436647323892554 -1.1648039757213203e-06 0 0 0
13458 1 2 0 30.628580911051596 21.911717723826893 5.957736563118201e-07 0 0 0
13455 1 2 0 25.993567486726846 19.877298031202702 -3.266995731749135e-08 0 0 0
9689 1 2 0 31.350731654020635 17.72339467241262 -2.2135950914285116 0 0 0
6964 1 1 0 31.930623062480453 19.15701908963314 -1.6453104508163492 0 0 0
9852 1 2 0 33.463917792538574 19.304937162338454 -2.26071552745105 0 0 0
6965 1 1 0 34.79928152198877 18.53398856782735 -1.6454086474233405 0 0 0
9854 1 2 0 36.18903341570041 19.217373634337342 -2.2266462799414253 0 0 0
9853 1 2 0 30.801461947671672 20.23692179043749 -2.178434121756214 0 0 0
9892 1 2 0 36.10984623302253 21.838096495867795 -2.255292939662597 0 0 0
9888 1 2 0 32.07350693094818 22.43875124190208 -2.234581283856946 0 0 0
6990 1 1 0 39.65802936656873 19.558391765177287 -1.646641114922137 0 0 0
9703 1 2 0 39.311577494763746 18.084086090670922 -2.275685387801803 0 0 0
9891 1 2 0 41.103827708494336 20.020823159947064 -2.258019157940333 0 0 0
9890 1 2 0 38.50398077781047 20.62711949486656 -2.1733301027016214 0 0 0
6991 1 1 0 36.94030098909233 20.56673528591964 -1.6448659697998096 0 0 0
13460 1 2 0 39.71050222318671 19.501712833038045 -2.8276976147037425e-07 0 0 0
6992 1 1 0 45.07767985021637 19.694520697159884 -1.648194887803784 0 0 0
9857 1 2 0 45.393894568618364 18.14392589720796 -2.1964681230993817 0 0 0
6993 1 1 0 42.26126074841686 21.02789267075427 -1.6494508205809266 0 0 0
9893 1 2 0 43.65797399779138 20.34643702402902 -2.2241577987295185 0 0 0
9894 1 2 0 46.21968818297468 20.749912161179218 -2.219570756349618 0 0 0
7033 1 1 0 47.13207600530892 22.004783988620026 -1.6475625310325603 0 0 0
13503 1 2 0 47.08856579252652 22.043629613196206 -1.7589837906302852e-07 0 0 0
13462 1 2 0 45.05893355961113 19.658378964914718 -2.14525811594876e-07 0 0 0
9856 1 2 0 49.800759896984474 17.40522272782857 -2.1917215454555183 0 0 0
6970 1 1 0 50.95108443581219 18.489266324720816 -1.6487136726322684 0 0 0
9861 1 2 0 50.71903380256866 20.04688670546725 -2.208592329094747 0 0 0
9859 1 2 0 52.43227670305995 17.996157257689532 -2.220149013945451 0 0 0
9954 1 2 0 48.636425533855636 21.690367208270764 -2.228932146441307 0 0 0
7032 1 1 0 50.16908676096489 21.52500808684895 -1.64911937892812 0 0 0
13502 1 2 0 50.23383009744685 21.514791006087354 -2.426291988557023e-07 0 0 0
6969 1 1 0 53.682519407157 17.069224458763486 -1.6482662687573926 0 0 0
9860 1 2 0 55.09445926794973 17.680759445636262 -2.246816083776979 0 0 0
9768 1 2 0 57.837470075579695 17.267692242402877 -2.1866644737370944 0 0 0
7000 1 1 0 56.55443846222238 18.17057041070842 -1.648378443190595 0 0 0
9905 1 2 0 56.79718575330858 19.675741593721494 -2.2586810029608393 0 0 0
9957 1 2 0 55.89257136242638 22.147789002664663 -2.2615025705217016 0 0 0
7034 1 1 0 57.07801500353653 21.173003187058846 -1.6514904120239466 0 0 0
6972 1 1 0 63.36000858379869 17.869508703223012 -1.6482582835926083 0 0 0
9864 1 2 0 63.06602143030049 19.398912819665124 -2.232171495076269 0 0 0
9958 1 2 0 58.527750564950566 21.66535964627829 -2.26581136924866 0 0 0
7039 1 1 0 59.97923809200614 22.125019573561666 -1.6450021666755918 0 0 0
9963 1 2 0 61.13624218909874 21.109082557737228 -2.21731636458686 0 0 0
7038 1 1 0 62.67709839470205 20.90199994475021 -1.6484071498378503 0 0 0
9964 1 2 0 63.59608318718172 22.169377979700926 -2.2212393410370064 0 0 0
13442 1 2 0 63.29609481882453 17.887592638042943 2.572771633362818e-09 0 0 0
13509 1 2 0 59.92229768584017 22.080283074084885 2.684086985134209e-07 0 0 0
9862 1 2 0 64.85836372980266 17.486336871160294 -2.224899081039426 0 0 0
6971 1 1 0 66.39492447156897 17.590741922727812 -1.6489517349272729 0 0 0
9863 1 2 0 67.09057880731362 18.987783714582086 -2.196009444706339 0 0 0
7006 1 1 0 68.30182045586488 19.979762111075004 -1.6501955768987662 0 0 0
9913 1 2 0 68.0411987857167 21.492802025330246 -2.254010749413233 0 0 0
6975 1 1 0 73.6173448454069 17.797741298200698 -1.6463951333277242 0 0 0
13445 1 2 0 73.66843082825086 17.736803999783177 -3.7864416066307424e-07 0 0 0
9912 1 2 0 69.75581260345292 19.450059655629175 -2.262244890424151 0 0 0
7005 1 1 0 70.83226204853487 18.365229367705794 -1.6398551307381346 0 0 0
9869 1 2 0 72.36657834969785 18.791149390372272 -2.1114159776346804 0 0 0
9975 1 2 0 73.54909431734471 22.347514186035834 -2.190300095493579 0 0 0
7045 1 1 0 75.10815199039753 22.054704023342396 -1.637794493006917 0 0 0
6976 1 1 0 79.01779535401857 17.948241607749086 -1.6519166399175669 0 0 0
9868 1 2 0 74.97375688270851 18.382657114160352 -2.316157478258306 0 0 0
6977 1 1 0 76.22318147853991 19.200908332031727 -1.646813772643077 0 0 0
9870 1 2 0 77.52378427407102 18.37659148669695 -2.2309648090946683 0 0 0
9871 1 2 0 79.90738234764329 19.215205261031283 -2.2633363645234104 0 0 0
9872 1 2 0 75.92315844654846 20.73168332063762 -2.211582816458784 0 0 0
13447 1 2 0 76.27865086884435 19.22214082848645 -6.478481003541954e-07 0 0 0
6945 1 1 0 84.71889842054247 17.022547598167687 -1.6440220664591825 0 0 0
9928 1 2 0 82.42874153267648 19.358858814395642 -2.144059903643696 0 0 0
7016 1 1 0 83.93982792280586 19.737377870579387 -1.6432916536698094 0 0 0
9824 1 2 0 84.91382898634822 18.548631689643358 -2.2423545505919606 0 0 0
7015 1 1 0 81.09262363647272 20.181917179805502 -1.63583002142613 0 0 0
9929 1 2 0 81.34600958684105 21.755083900737933 -2.1481067077132048 0 0 0
9930 1 2 0 84.37573937910953 21.198570500996638 -2.2519648812423423 0 0 0
7051 1 1 0 85.67121958710203 22.01695623731305 -1.6478299705481243 0 0 0
13485 1 2 0 80.89018394509796 20.225386698991027 -2.854525285420167e-07 0 0 0
9823 1 2 0 88.18260820343565 17.600095384898612 -2.282550577036692 0 0 0
6979 1 1 0 89.39289598191331 18.507192907032874 -1.6423656482954647 0 0 0
9875 1 2 0 89.34543405923104 20.038770746992373 -2.252751814665117 0 0 0
9873 1 2 0 90.818561954004 17.843696155336467 -2.1349985598357932 0 0 0
7052 1 1 0 88.54839069713546 21.347621816340478 -1.6451707027231928 0 0 0
9984 1 2 0 87.01466039893518 21.257355492530554 -2.2237574183250293 0 0 0
13449 1 2 0 89.27929379104047 18.5367625784498 -5.5523130640985005e-08 0 0 0
13522 1 2 0 88.56627508932364 21.3339173791354 -2.085724815337642e-06 0 0 0
9843 1 2 0 93.39949776188072 17.389918216939826 -2.2235949650480342 0 0 0
6978 1 1 0 92.28228015754976 18.436541205744483 -1.6424678592371893 0 0 0
7020 1 1 0 92.95102575643023 21.39045248963656 -1.6485768038413966 0 0 0
9874 1 2 0 92.53819652768827 19.92939971761595 -2.2895809756657854 0 0 0
9935 1 2 0 94.46993276128308 21.693270502709773 -2.202981588781297 0 0 0
9844 1 2 0 97.65499902393866 17.75032242079724 -2.1874645044512406 0 0 0
9937 1 2 0 97.02299935467272 22.23725271358187 -2.2634887066541256 0 0 0
6982 1 1 0 98.92475746335359 18.716115081238986 -1.6531688398798505 0 0 0
6669 1 1 0 101.92908123363759 18.800689252800066 -1.639292056112242 0 0 0
9396 1 2 0 100.4536873658165 18.2568860662465 -2.202939502753256 0 0 0
7021 1 1 0 98.49128129483873 21.802699953452812 -1.6482586966898944 0 0 0
9879 1 2 0 98.76398441391231 20.27454865622938 -2.2267533679576763 0 0 0
9394 1 2 0 102.16550666813623 20.396732006991453 -2.059149478770024 0 0 0
13139 1 2 0 101.92775716211322 18.568827838848286 -5.637653831231012e-07 0 0 0
13491 1 2 0 98.50207307367872 21.77069495165565 -2.5062732018122013e-08 0 0 0
9457 1 2 0 9.721940801317407 23.980518036790507 -2.2725939709332716 0 0 0
9459 1 2 0 12.353335068878685 23.723861223941036 -2.0916134188691955 0 0 0
6711 1 1 0 11.072038283922845 24.673118933856994 -1.6441717361936243 0 0 0
6712 1 1 0 13.887652710283293 24.16842192184749 -1.6418357499673677 0 0 0
9460 1 2 0 11.309733073175245 26.17683035358443 -2.308360286017444 0 0 0
6757 1 1 0 11.620812959194872 27.593010850653535 -1.530136615665153 0 0 0
9461 1 2 0 14.148029115652315 25.709130691126557 -2.2272048269775406 0 0 0
9455 1 2 0 14.937084322365116 23.04531830264844 -2.248978720712799 0 0 0
9466 1 2 0 18.578118775399748 22.864521724938644 -2.2167188227444017 0 0 0
6761 1 1 0 15.314925902010799 26.741006941353778 -1.6424810800562304 0 0 0
9537 1 2 0 16.706800134426324 26.046406468345193 -2.185913541337279 0 0 0
7097 1 1 0 18.18327616044199 26.53465262397481 -1.6463848203901594 0 0 0
9950 1 2 0 19.27638574072024 25.473423544667718 -2.263531366793529 0 0 0
7029 1 1 0 19.644973582202212 23.98594181165741 -1.649120701739223 0 0 0
13231 1 2 0 15.26596698473384 26.759186453653925 -2.790319370834925e-07 0 0 0
9885 1 2 0 23.6239713476018 22.803452166371848 -2.1359975816296126 0 0 0
9948 1 2 0 21.13744209992716 23.625171298127963 -2.238519634716699 0 0 0
7028 1 1 0 22.62023169774961 24.03414942918832 -1.6443881898048975 0 0 0
9949 1 2 0 23.041005089216604 25.508935542865558 -2.2441119969088996 0 0 0
7056 1 1 0 24.078015744609857 26.66182681011482 -1.6508409579012173 0 0 0