ITEM: TIMESTEP
1247
ITEM: NUMBER OF ATOMS
15420
ITEM: BOX BOUNDS pp pp pp
0.0000000000000000e+00 2.0347099224277724e+02
0.0000000000000000e+00 1.7639867897773547e+02
-1.0000000000000000e+02 1.0000000000000000e+02
ITEM: ATOMS id type element x y z v_uncoordination
1 1 Si 169.78 49.6315 1.61679 0
2 1 Si 168.415 46.6075 1.61215 0
3 1 Si 172.622 48.0405 1.63266 0
4 1 Si 169.928 43.6644 1.6193 0
5 1 Si 172.846 44.7824 1.62846 0
6 1 Si 168.61 52.9302 1.62766 0
7 1 Si 165.465 54.6239 1.61972 0
8 1 Si 165.284 46.5603 1.61865 0
9 1 Si 163.541 49.3211 1.59368 0
10 1 Si 162.966 52.5523 1.63289 0
11 1 Si 171.047 55.114 1.61791 0
12 1 Si 174.385 54.4458 1.63481 0
13 1 Si 175.627 48.9947 1.62409 0
14 1 Si 176.849 51.9863 1.6386 0
15 1 Si 113.181 2.01193 1.62632 0
16 1 Si 116.166 3.29103 1.65409 0
17 1 Si 109.884 2.53549 1.62522 0
18 1 Si 117.343 6.40284 1.61825 0
19 1 Si 107.624 4.97319 1.625 0
20 1 Si 109.317 7.91791 1.60134 0
21 1 Si 115.688 9.31159 1.62418 0
22 1 Si 112.293 9.73731 1.62225 0
23 1 Si 113.698 175.204 1.63079 0
24 1 Si 118.283 0.788266 1.63389 0
25 1 Si 115.729 172.647 1.62609 0
26 1 Si 118.52 173.92 1.62538 0
27 1 Si 108.578 175.986 1.60071 0
28 1 Si 110.918 173.861 1.60927 0
29 1 Si 123.732 5.80033 1.62538 0
30 1 Si 120.636 7.09614 1.62005 0
31 1 Si 123.962 2.667 1.62053 0
32 1 Si 121.395 0.858223 1.61932 0
33 1 Si 126.922 6.93961 1.62822 0
34 1 Si 121.043 10.2805 1.62019 0
35 1 Si 126.965 10.2133 1.62527 0
36 1 Si 123.99 11.7012 1.63333 0
37 1 Si 126.737 0.973833 1.6245 0
38 1 Si 122.759 174.403 1.6235 0
39 1 Si 125.918 174.293 1.64204 0
40 1 Si 129.876 5.30834 1.62658 0
41 1 Si 129.801 1.99113 1.6305 0
42 1 Si 135.546 4.84557 1.64687 0
43 1 Si 132.838 6.83461 1.62472 0
44 1 Si 138.629 5.88961 1.61905 0
45 1 Si 140.453 8.61516 1.63177 0
46 1 Si 132.825 10.2182 1.62766 0
47 1 Si 135.738 11.8758 1.63052 0
48 1 Si 139.089 11.4876 1.6175 0
49 1 Si 135.311 1.54663 1.62284 0
50 1 Si 132.455 176.394 1.62082 0
51 1 Si 140.835 3.59978 1.62206 0
52 1 Si 140.693 0.387264 1.64888 0
53 1 Si 137.675 175.699 1.61063 0
54 1 Si 143.584 5.04274 1.63032 0
55 1 Si 143.672 8.17996 1.57947 0
56 1 Si 146.225 3.40727 1.63691 0
57 1 Si 146.116 0.281102 1.62564 0
58 1 Si 143.39 175.026 1.62492 0
59 1 Si 148.748 5.27483 1.62169 0
60 1 Si 146.927 8.02215 1.62693 0
61 1 Si 151.567 3.6383 1.61656 0
62 1 Si 151.524 0.390351 1.63341 0
63 1 Si 148.796 175.009 1.62165 0
64 1 Si 154.72 4.53516 1.60759 0
65 1 Si 154.377 7.84204 1.63028 0
66 1 Si 148.386 10.7804 1.62539 0
67 1 Si 151.622 9.89389 1.59451 0
68 1 Si 156.787 1.81776 1.61502 0
69 1 Si 154.574 175.757 1.61724 0
70 1 Si 160.332 8.6502 1.65432 0
71 1 Si 157.067 9.5754 1.61783 0
72 1 Si 161.298 11.6213 1.61375 0
73 1 Si 155.198 12.3837 1.62056 0
74 1 Si 159.583 14.2187 1.60461 0
75 1 Si 156.584 15.1794 1.61387 0
76 1 Si 162.799 6.33564 1.63391 0
77 1 Si 162.808 2.87916 1.61667 0
78 1 Si 160.088 0.824636 1.62408 0
79 1 Si 165.829 7.73066 1.63432 0
80 1 Si 167.15 10.708 1.61112 0
81 1 Si 163.439 13.8089 1.64351 0
82 1 Si 166.436 13.8115 1.60761 0
83 1 Si 168.368 5.86456 1.63599 0
84 1 Si 168.603 2.73262 1.63357 0
85 1 Si 165.819 1.1222 1.61713 0
86 1 Si 171.32 6.86253 1.62748 0
87 1 Si 172.56 9.659 1.63448 0
88 1 Si 170.21 11.7713 1.63211 0
89 1 Si 173.492 4.67657 1.62466 0
90 1 Si 171.763 2.07171 1.62782 0
91 1 Si 176.505 5.45254 1.61727 0
92 1 Si 175.609 8.59774 1.63645 0
93 1 Si 178.418 2.74545 1.64325 0
94 1 Si 176.809 175.958 1.61876 0
95 1 Si 173.329 175.723 1.61211 0
96 1 Si 181.697 3.62446 1.62235 0
97 1 Si 182.792 6.93881 1.62998 0
98 1 Si 180.902 9.73091 1.62369 0
99 1 Si 177.783 10.8303 1.61754 0
100 1 Si 183.987 1.13634 1.6189 0
101 1 Si 188.162 5.17932 1.62598 0
102 1 Si 186.114 7.72753 1.63171 0
103 1 Si 187.051 2.19576 1.61903 0
104 1 Si 181.462 172.041 1.63114 0
105 1 Si 178.111 172.791 1.62786 0
106 1 Si 183.974 174.198 1.62594 0
107 1 Si 191.323 4.45558 1.62494 0
108 1 Si 193.807 6.31933 1.61804 0
109 1 Si 193.176 9.52087 1.61567 0
110 1 Si 187.445 10.8509 1.63024 0
111 1 Si 190.694 11.7256 1.64287 0
112 1 Si 192.367 1.44656 1.62623 0
113 1 Si 189.52 0.228145 1.62309 0
114 1 Si 196.742 4.78314 1.61728 0
115 1 Si 198.251 7.68729 1.63809 0
116 1 Si 196.298 10.3172 1.63596 0
117 1 Si 197.562 1.41438 1.63285 0
118 1 Si 194.841 175.833 1.61335 0
119 1 Si 0.0986259 6.01504 1.62946 0
120 1 Si 201.414 8.36956 1.62186 0
121 1 Si 203.248 2.66236 1.61216 0
122 1 Si 200.762 0.215599 1.62787 0
123 1 Si 2.49962 8.25849 1.60893 0
124 1 Si 202.784 11.3851 1.62623 0
125 1 Si 2.61959 11.5159 1.60976 0
126 1 Si 5.28702 3.99374 1.61221 0
127 1 Si 5.37694 7.20977 1.61836 0
128 1 Si 2.94472 1.77424 1.62268 0
129 1 Si 103.999 4.68118 1.61992 0
130 1 Si 106.783 10.0002 1.61987 0
131 1 Si 103.504 10.0127 1.6436 0
132 1 Si 101.832 7.25198 1.6308 0
133 1 Si 101.836 2.12721 1.64336 0
134 1 Si 102.948 175.539 1.63028 0
135 1 Si 105.863 174.375 1.63138 0
136 1 Si 118.093 11.7118 1.6156 0
137 1 Si 129.852 11.9231 1.63074 0
138 1 Si 182.168 12.7058 1.64273 0
139 1 Si 185.348 13.4336 1.62986 0
140 1 Si 197.32 13.4331 1.63389 0
141 1 Si 200.658 13.8611 1.62326 0
142 1 Si 111.377 12.9222 1.61646 0
143 1 Si 108.154 12.8694 1.62658 0
144 1 Si 118.237 15.0434 1.63885 0
145 1 Si 112.699 15.9371 1.65449 0
146 1 Si 115.699 17.0967 1.63608 0
147 1 Si 129.473 15.2376 1.62668 0
148 1 Si 123.856 14.9608 1.63145 0
149 1 Si 126.593 16.6049 1.63933 0
150 1 Si 135.729 15.0385 1.60431 0
151 1 Si 131.11 18.0815 1.62401 0
152 1 Si 134.211 17.8304 1.63174 0
153 1 Si 141.133 14.092 1.61426 0
154 1 Si 138.697 16.0388 1.61857 0
155 1 Si 146.807 13.7307 1.60558 0
156 1 Si 144.05 15.6265 1.63814 0
157 1 Si 152.008 13.0761 1.62058 0
158 1 Si 149.603 15.3093 1.63414 0
159 1 Si 161.801 16.369 1.6047 0
160 1 Si 170.941 14.9527 1.62668 0
161 1 Si 168.105 16.5431 1.60828 0
162 1 Si 176.836 13.9783 1.6124 0
163 1 Si 174.15 15.9808 1.64068 0
164 1 Si 179.898 15.038 1.63407 0
165 1 Si 191.617 14.9879 1.63864 0
166 1 Si 194.84 15.7831 1.62363 0
167 1 Si 202.209 16.7224 1.64439 0
168 1 Si 1.96516 17.3116 1.63394 0
169 1 Si 5.17606 16.515 1.63522 0
170 1 Si 5.52009 13.3423 1.62451 0
171 1 Si 106.38 15.5074 1.63859 0
172 1 Si 103.197 15.633 1.63799 0
173 1 Si 101.733 12.7931 1.64261 0
174 1 Si 121.102 16.6652 1.63307 0
175 1 Si 186.204 16.6865 1.64124 0
176 1 Si 180.727 18.1622 1.63877 0
177 1 Si 183.89 19.1378 1.64136 0
178 1 Si 189.4 17.6058 1.62458 0
179 1 Si 194.639 19.1692 1.6254 0
180 1 Si 200.301 19.2906 1.61423 0
181 1 Si 197.392 20.5351 1.64543 0
182 1 Si 107.828 18.3078 1.62034 0
183 1 Si 110.916 18.6092 1.61497 0
184 1 Si 121.356 19.9286 1.63983 0
185 1 Si 115.93 20.4093 1.62554 0
186 1 Si 118.781 21.8225 1.64158 0
187 1 Si 126.768 19.7877 1.63273 0
188 1 Si 124.151 21.5497 1.63506 0
189 1 Si 129.706 21.0177 1.61516 0
190 1 Si 138.792 19.1141 1.61213 0
191 1 Si 135.97 20.4754 1.60876 0
192 1 Si 144.049 19.0628 1.63513 0
193 1 Si 141.301 20.9588 1.61074 0
194 1 Si 149.579 18.5928 1.62417 0
195 1 Si 146.896 20.6897 1.62287 0
196 1 Si 155.572 18.2595 1.63027 0
197 1 Si 152.613 19.7748 1.64865 0
198 1 Si 161.418 19.4018 1.63027 0
199 1 Si 158.26 20.0994 1.63791 0
200 1 Si 167.265 19.7206 1.62322 0
201 1 Si 164.221 21.0518 1.63366 0
202 1 Si 175.076 19.1808 1.62212 0
203 1 Si 169.687 21.8235 1.65611 0
204 1 Si 172.877 21.5137 1.64189 0
205 1 Si 178.232 20.2514 1.63013 0
206 1 Si 189.756 21.0407 1.61441 0
207 1 Si 192.732 22.1363 1.64045 0
208 1 Si 201.44 22.1842 1.61192 0
209 1 Si 2.7314 20.3048 1.64004 0
210 1 Si 0.9258 22.8135 1.61234 0
211 1 Si 106.361 21.0774 1.62926 0
212 1 Si 103.232 21.1496 1.63868 0
213 1 Si 101.607 18.4533 1.63811 0
214 1 Si 110.819 21.8159 1.62618 0
215 1 Si 113.714 22.8359 1.62753 0
216 1 Si 184.469 22.4579 1.63737 0
217 1 Si 179.17 23.3645 1.63606 0
218 1 Si 182.076 24.7401 1.64201 0
219 1 Si 187.524 23.6328 1.61558 0
220 1 Si 196.549 23.6003 1.60391 0
221 1 Si 199.449 24.5405 1.62605 0
222 1 Si 5.6653 21.1646 1.62195 0
223 1 Si 7.70735 18.7284 1.62914 0
224 1 Si 108.196 23.613 1.6261 0
225 1 Si 119.04 25.0327 1.63388 0
226 1 Si 113.463 26.0456 1.60751 0
227 1 Si 116.493 26.8927 1.61976 0
228 1 Si 124.517 24.7617 1.64647 0
229 1 Si 121.849 26.556 1.63691 0
230 1 Si 130.139 24.2655 1.63775 0
231 1 Si 127.408 26.2177 1.63854 0
232 1 Si 136 23.6595 1.62935 0
233 1 Si 133.192 25.5456 1.64111 0
234 1 Si 139.359 23.6964 1.62528 0
235 1 Si 146.807 24.1146 1.64284 0
236 1 Si 140.777 26.5463 1.61635 0
237 1 Si 144.167 26.3806 1.62471 0
238 1 Si 152.394 22.9982 1.64139 0
239 1 Si 149.944 25.0956 1.62781 0
240 1 Si 157.964 23.2366 1.64907 0
241 1 Si 155.13 24.5731 1.64021 0
242 1 Si 163.498 24.1632 1.62168 0
243 1 Si 160.501 25.0958 1.63536 0
244 1 Si 169.094 24.906 1.60939 0
245 1 Si 164.621 27.1542 1.61246 0
246 1 Si 167.621 27.6759 1.64598 0
247 1 Si 174.063 24.4208 1.62422 0
248 1 Si 176.913 25.5227 1.64048 0
249 1 Si 192.231 25.673 1.63195 0
250 1 Si 195.193 26.4497 1.63581 0
251 1 Si 106.861 26.5012 1.63852 0
252 1 Si 103.699 26.5584 1.62644 0
253 1 Si 101.901 23.9723 1.62297 0
254 1 Si 171.764 26.3955 1.62849 0
255 1 Si 182.186 28.0861 1.63918 0
256 1 Si 176.973 28.6117 1.63206 0
257 1 Si 179.64 30.1716 1.6195 0
258 1 Si 187.588 26.9971 1.61986 0
259 1 Si 185.165 29.255 1.61727 0
260 1 Si 190.359 28.5895 1.59714 0
261 1 Si 199.847 27.5698 1.60103 0
262 1 Si 197.027 28.9791 1.61531 0
263 1 Si 1.65122 25.8808 1.57836 0
264 1 Si 202.965 28.2502 1.62798 0
265 1 Si 4.3187 24.0853 1.56815 0
266 1 Si 111.686 28.7495 1.63745 0
267 1 Si 108.563 29.2116 1.62639 0
268 1 Si 116.386 30.0376 1.62799 0
269 1 Si 113.53 31.3568 1.63109 0
270 1 Si 121.693 29.745 1.62969 0
271 1 Si 119.066 31.5797 1.6172 0
272 1 Si 127.079 29.5569 1.63472 0
273 1 Si 124.279 31.5383 1.6246 0
274 1 Si 132.892 28.8319 1.61718 0
275 1 Si 130.104 30.6793 1.62214 0
276 1 Si 138.817 29.3445 1.61982 0
277 1 Si 135.576 30.6548 1.62901 0
278 1 Si 144.475 29.6335 1.63694 0
279 1 Si 141.494 31.1953 1.6243 0
280 1 Si 151.619 27.8826 1.61878 0
281 1 Si 147.469 31.1347 1.61076 0
282 1 Si 150.866 30.9367 1.62671 0
283 1 Si 154.817 27.6919 1.6188 0
284 1 Si 160.209 28.2406 1.63777 0
285 1 Si 157.373 29.5752 1.63761 0
286 1 Si 162.905 29.84 1.61712 0
287 1 Si 171.624 29.4114 1.62903 0
288 1 Si 168.796 30.6112 1.61757 0
289 1 Si 174.466 30.4549 1.62907 0
290 1 Si 107.321 32.1845 1.62738 0
291 1 Si 103.964 31.6208 1.63218 0
292 1 Si 101.789 29.0772 1.62386 0
293 1 Si 177.812 32.9445 1.62995 0
294 1 Si 174.524 33.5244 1.62125 0
295 1 Si 185.784 32.475 1.62646 0
296 1 Si 182.973 34.9751 1.62002 0
297 1 Si 179.3 35.6891 1.62985 0
298 1 Si 189.253 31.8612 1.62783 0
299 1 Si 197.214 32.0802 1.63672 0
300 1 Si 191.468 34.358 1.62716 0
301 1 Si 194.894 34.2916 1.60172 0
302 1 Si 203.176 31.394 1.63368 0
303 1 Si 200.335 32.9192 1.61607 0
304 1 Si 6.42855 26.2226 1.59024 0
305 1 Si 6.52766 29.3432 1.60539 0
306 1 Si 9.13023 24.5864 1.57333 0
307 1 Si 9.29138 27.757 1.60243 0
308 1 Si 2.27316 33.2979 1.61263 0
309 1 Si 5.45239 32.3797 1.6254 0
310 1 Si 113 34.5624 1.62493 0
311 1 Si 109.575 34.8031 1.63904 0
312 1 Si 119.06 34.788 1.60886 0
313 1 Si 115.942 36.4648 1.63778 0
314 1 Si 122.498 34.5049 1.62788 0
315 1 Si 130.373 33.8937 1.62826 0
316 1 Si 124.255 37.2426 1.62466 0
317 1 Si 127.826 36.3487 1.61247 0
318 1 Si 133.776 33.5644 1.62385 0
319 1 Si 141.2 34.4378 1.63461 0
320 1 Si 135.219 36.4484 1.62921 0
321 1 Si 138.572 36.5554 1.62668 0
322 1 Si 147.192 34.2959 1.63176 0
323 1 Si 144.254 35.5852 1.62847 0
324 1 Si 153.794 32.8043 1.62423 0
325 1 Si 149.969 35.8858 1.62006 0
326 1 Si 153.196 35.8671 1.62325 0
327 1 Si 157.15 32.7431 1.62076 0
328 1 Si 162.854 33.0176 1.6322 0
329 1 Si 159.951 34.5051 1.64327 0
330 1 Si 168.509 33.774 1.65202 0
331 1 Si 165.433 34.9727 1.61689 0
332 1 Si 171.589 35.0671 1.63461 0
333 1 Si 183.763 38.1399 1.62756 0
334 1 Si 176.067 37.8008 1.6298 0
335 1 Si 177.613 40.5843 1.62696 0
336 1 Si 181.007 40.2168 1.62841 0
337 1 Si 190.148 37.4104 1.62396 0
338 1 Si 187.069 38.861 1.63258 0
339 1 Si 197.344 36.6047 1.62277 0
340 1 Si 192.662 39.5203 1.61199 0
341 1 Si 196.015 39.5267 1.62243 0
342 1 Si 200.676 36.0369 1.60542 0
343 1 Si 0.573799 36.1541 1.62341 0
344 1 Si 2.4653 38.7969 1.61977 0
345 1 Si 5.94045 37.9139 1.62596 0
346 1 Si 7.70913 34.7907 1.61714 0
347 1 Si 107.91 37.6245 1.6344 0
348 1 Si 104.642 36.7752 1.62998 0
349 1 Si 102.389 34.3246 1.62608 0
350 1 Si 115.652 39.9141 1.61999 0
351 1 Si 109.174 40.8027 1.63472 0
352 1 Si 112.61 41.7879 1.61706 0
353 1 Si 122.178 40.2927 1.63576 0
354 1 Si 118.505 41.7701 1.60897 0
355 1 Si 129.724 39.022 1.62238 0
356 1 Si 124.662 42.4308 1.6163 0
357 1 Si 127.85 41.6541 1.62496 0
358 1 Si 133.105 39.1116 1.61967 0
359 1 Si 139.412 39.713 1.61792 0
360 1 Si 134.489 42.1621 1.62251 0
361 1 Si 137.701 42.4525 1.62166 0
362 1 Si 144.735 38.6541 1.63896 0
363 1 Si 142.422 40.6486 1.62826 0
364 1 Si 150.087 38.98 1.61631 0
365 1 Si 147.375 40.328 1.62241 0
366 1 Si 155.116 38.4997 1.62553 0
367 1 Si 152.769 40.557 1.62907 0
368 1 Si 160.587 37.7063 1.62531 0
369 1 Si 158.066 39.8848 1.63934 0
370 1 Si 163.933 37.9117 1.61621 0
371 1 Si 172.304 38.2017 1.636 0
372 1 Si 169.323 40.4359 1.62856 0
373 1 Si 165.791 40.6306 1.62717 0
374 1 Si 175.721 43.3276 1.6023 0
375 1 Si 181.997 43.1916 1.62096 0
376 1 Si 180.243 45.8225 1.6186 0
377 1 Si 177.168 46.176 1.60887 0
378 1 Si 187.561 42.0354 1.61269 0
379 1 Si 185.056 44.0165 1.63161 0
380 1 Si 8.40261 4.09091 1.63428 0
381 1 Si 9.79481 6.93848 1.61932 0
382 1 Si 7.82193 9.28955 1.62872 0
383 1 Si 10.6208 1.92861 1.62611 0
384 1 Si 3.81225 175.1 1.62753 0
385 1 Si 6.8689 173.935 1.61812 0
386 1 Si 9.8604 175.199 1.62892 0
387 1 Si 190.765 42.12 1.61617 0
388 1 Si 18.608 4.32011 1.61749 0
389 1 Si 15.8556 2.38283 1.61956 0
390 1 Si 12.903 7.26936 1.62964 0
391 1 Si 13.1584 3.99716 1.62361 0
392 1 Si 19.613 7.50587 1.63449 0
393 1 Si 14.2344 10.3143 1.64335 0
394 1 Si 17.6132 10.3003 1.62771 0
395 1 Si 20.9408 2.12116 1.62647 0
396 1 Si 20.1674 175.514 1.62787 0
397 1 Si 17.6266 173.648 1.62719 0
398 1 Si 15.0623 175.45 1.62287 0
399 1 Si 197.769 42.3539 1.62959 0
400 1 Si 195.441 44.679 1.61267 0
401 1 Si 192.227 44.8432 1.63412 0
402 1 Si 24.0804 2.33751 1.63149 0
403 1 Si 25.1841 5.26994 1.61611 0
404 1 Si 22.9884 7.70512 1.63577 0
405 1 Si 0.815075 41.912 1.61335 0
406 1 Si 201.023 43.2488 1.64339 0
407 1 Si 26.3131 0.0536002 1.6398 0
408 1 Si 28.1773 3.99035 1.62331 0
409 1 Si 29.3048 0.918746 1.61765 0
410 1 Si 22.411 173.406 1.62488 0
411 1 Si 25.4917 173.472 1.60747 0
412 1 Si 33.337 3.82048 1.61709 0
413 1 Si 30.6574 5.79591 1.61415 0
414 1 Si 35.1762 6.33946 1.62885 0
415 1 Si 33.2888 9.08921 1.62083 0
416 1 Si 30.0524 8.98441 1.61718 0
417 1 Si 34.6231 0.726619 1.62373 0
418 1 Si 31.9026 175.313 1.64893 0
419 1 Si 3.22892 44.2796 1.62642 0
420 1 Si 7.6763 40.7291 1.61398 0
421 1 Si 6.4151 43.7515 1.62079 0
422 1 Si 38.3389 5.51784 1.62086 0
423 1 Si 39.4065 8.60783 1.62508 0
424 1 Si 37.9029 11.5543 1.63173 0
425 1 Si 34.4318 12.0661 1.63993 0
426 1 Si 106.475 42.9467 1.62864 0
427 1 Si 103.208 41.9373 1.62382 0
428 1 Si 102.291 38.8675 1.63946 0
429 1 Si 40.0074 2.55747 1.62851 0
430 1 Si 44.1671 5.74598 1.63705 0
431 1 Si 43.3813 2.56252 1.63807 0
432 1 Si 42.562 8.51768 1.62699 0
433 1 Si 37.9377 176.309 1.62627 0
434 1 Si 116.805 44.8932 1.61743 0
435 1 Si 113.214 45.1408 1.61056 0
436 1 Si 49.6333 4.68686 1.62519 0
437 1 Si 47.1727 6.66068 1.63736 0
438 1 Si 51.5617 7.47089 1.62489 0
439 1 Si 47.5989 9.77964 1.61663 0
440 1 Si 50.5994 10.6658 1.61451 0
441 1 Si 49.0971 1.26875 1.64096 0
442 1 Si 45.8577 0.0981931 1.62933 0
443 1 Si 55.5044 3.8232 1.61239 0
444 1 Si 54.6884 7.04359 1.62351 0
445 1 Si 54.6971 0.540653 1.63659 0
446 1 Si 51.6944 175.405 1.64545 0
447 1 Si 124.657 45.6881 1.63418 0
448 1 Si 118.861 47.5272 1.62706 0
449 1 Si 122.196 47.7566 1.60954 0
450 1 Si 58.5376 4.86998 1.62416 0
451 1 Si 59.4685 7.92697 1.63857 0
452 1 Si 56.7961 9.65809 1.61901 0
453 1 Si 60.8239 2.7825 1.62914 0
454 1 Si 60.122 176.109 1.63015 0
455 1 Si 57.2241 174.817 1.63501 0
456 1 Si 170.101 58.3224 1.6272 0
457 1 Si 167.223 59.9026 1.63151 0
458 1 Si 164.452 57.9764 1.61703 0
459 1 Si 172.902 59.8641 1.60738 0
460 1 Si 174.318 62.8042 1.62685 0
461 1 Si 167.333 63.2478 1.63835 0
462 1 Si 169.647 65.753 1.62827 0
463 1 Si 173.183 65.8568 1.63039 0
464 1 Si 175.104 57.5464 1.60042 0
465 1 Si 63.8777 3.58199 1.62183 0
466 1 Si 64.8988 6.63775 1.63858 0
467 1 Si 62.5653 8.91958 1.6418 0
468 1 Si 129.638 44.2884 1.62148 0
469 1 Si 127.716 46.7648 1.60114 0
470 1 Si 65.0408 0.577531 1.62515 0
471 1 Si 68.1099 7.17409 1.62432 0
472 1 Si 69.2537 3.77752 1.61949 0
473 1 Si 68.1928 0.329004 1.61995 0
474 1 Si 62.8792 174.563 1.62182 0
475 1 Si 132.767 44.9253 1.63326 0
476 1 Si 74.1302 6.21501 1.62791 0
477 1 Si 72.4234 3.44461 1.63025 0
478 1 Si 69.0373 10.6031 1.6438 0
479 1 Si 74.5784 9.40461 1.64245 0
480 1 Si 72.3144 11.7064 1.63386 0
481 1 Si 77.1449 5.53549 1.61847 0
482 1 Si 78.4729 2.80037 1.62749 0
483 1 Si 73.6687 0.367763 1.61618 0
484 1 Si 76.8537 0.179075 1.61707 0
485 1 Si 87.3567 5.07551 1.64157 0
486 1 Si 84.9325 7.25109 1.61996 0
487 1 Si 90.514 6.06901 1.62164 0
488 1 Si 84.9065 10.4456 1.64657 0
489 1 Si 90.8822 9.17892 1.63274 0
490 1 Si 88.0708 10.7007 1.61666 0
491 1 Si 82.0465 6.13943 1.63372 0
492 1 Si 81.5728 3.02652 1.61905 0
493 1 Si 86.4592 1.9064 1.61802 0
494 1 Si 83.4949 0.519376 1.62844 0
495 1 Si 79.3639 7.69659 1.61751 0
496 1 Si 93.2768 4.32418 1.6292 0
497 1 Si 91.806 1.44342 1.62291 0
498 1 Si 88.9085 176.346 1.62688 0
499 1 Si 144.321 43.1913 1.61874 0
500 1 Si 139.522 45.1424 1.62277 0
501 1 Si 142.681 45.7259 1.62426 0
502 1 Si 98.5136 2.12163 1.63844 0
503 1 Si 96.598 4.75813 1.64895 0
504 1 Si 96.7504 175.805 1.64188 0
505 1 Si 93.6131 175.339 1.63688 0
506 1 Si 98.4551 7.475 1.6302 0
507 1 Si 101.095 172.969 1.6214 0
508 1 Si 97.9902 172.937 1.63566 0
509 1 Si 147.433 43.4251 1.62276 0
510 1 Si 8.76844 12.3638 1.62774 0
511 1 Si 12.1753 13.1205 1.63659 0
512 1 Si 152.684 43.67 1.62667 0
513 1 Si 149.941 45.2569 1.62244 0
514 1 Si 24.3253 10.613 1.62272 0
515 1 Si 27.5578 11.1003 1.63202 0
516 1 Si 157.989 43.2983 1.63039 0
517 1 Si 155.279 45.4004 1.61714 0
518 1 Si 44.6752 10.8976 1.62809 0
519 1 Si 40.4845 13.8174 1.62289 0
520 1 Si 44.1033 13.9607 1.63937 0
521 1 Si 163.951 43.5592 1.60484 0
522 1 Si 160.861 44.8033 1.63073 0
523 1 Si 63.2614 12.1126 1.64436 0
524 1 Si 57.1986 12.9904 1.6387 0
525 1 Si 60.4826 14.0489 1.63695 0
526 1 Si 66.5453 12.9913 1.63715 0
527 1 Si 77.7058 10.2805 1.62674 0
528 1 Si 79.3638 12.9799 1.63687 0
529 1 Si 82.616 12.7874 1.64044 0
530 1 Si 200.806 46.5193 1.62681 0
531 1 Si 195.568 47.8441 1.61247 0
532 1 Si 198.498 48.8243 1.63578 0
533 1 Si 106.981 46.2719 1.61916 0
534 1 Si 110.178 47.6152 1.61817 0
535 1 Si 203.408 48.2284 1.63271 0
536 1 Si 3.03526 47.5669 1.62235 0
537 1 Si 93.6505 10.816 1.62719 0
538 1 Si 96.8417 10.357 1.6366 0
539 1 Si 138.977 48.2291 1.64939 0
540 1 Si 133.361 48.1096 1.62582 0
541 1 Si 136.208 49.7515 1.64492 0
542 1 Si 144.491 48.3067 1.61077 0
543 1 Si 141.748 49.7933 1.63432 0
544 1 Si 150.097 48.4223 1.61151 0
545 1 Si 147.221 49.9859 1.64393 0
546 1 Si 19.0946 13.3317 1.62375 0
547 1 Si 22.45 13.2497 1.62174 0
548 1 Si 184.805 47.1876 1.63301 0
549 1 Si 181.865 48.5228 1.60627 0
550 1 Si 31.6643 14.3478 1.62813 0
551 1 Si 28.2003 14.2386 1.60312 0
552 1 Si 38.9811 16.6412 1.62931 0
553 1 Si 35.7196 17.4623 1.60683 0
554 1 Si 32.3348 17.5035 1.62898 0
555 1 Si 190.417 47.5188 1.60435 0
556 1 Si 187.465 48.8408 1.62714 0
557 1 Si 192.889 49.4716 1.6244 0
558 1 Si 51.0153 13.9474 1.63506 0
559 1 Si 47.5639 15.262 1.62985 0
560 1 Si 54.4467 15.1281 1.63302 0
561 1 Si 104.035 47.8469 1.6022 0
562 1 Si 100.331 43.5956 1.63477 0
563 1 Si 101.03 46.6817 1.60359 0
564 1 Si 117.932 50.6373 1.61224 0
565 1 Si 109.765 51.1382 1.62911 0
566 1 Si 115.548 52.7876 1.62175 0
567 1 Si 112.307 53.2076 1.63238 0
568 1 Si 73.9349 14.7392 1.61598 0
569 1 Si 77.2469 15.4421 1.61703 0
570 1 Si 123.342 50.8238 1.62746 0
571 1 Si 120.633 52.4541 1.62441 0
572 1 Si 89.3078 13.5201 1.63101 0
573 1 Si 92.3995 13.7106 1.624 0
574 1 Si 130.193 48.8487 1.6246 0
575 1 Si 129.426 51.844 1.61872 0
576 1 Si 126.208 52.3893 1.63445 0
577 1 Si 98.5049 13.1573 1.63564 0
578 1 Si 13.5869 16.3623 1.63175 0
579 1 Si 11.1122 19.0937 1.63394 0
580 1 Si 17.4505 16.3358 1.61153 0
581 1 Si 153.417 48.2923 1.6225 0
582 1 Si 24.9874 15.372 1.62867 0
583 1 Si 160.606 48.0636 1.62979 0
584 1 Si 155.058 51.0422 1.61563 0
585 1 Si 158.29 50.3446 1.60714 0
586 1 Si 41.231 18.9982 1.63168 0
587 1 Si 36.0759 20.5643 1.60843 0
588 1 Si 39.1044 21.2924 1.63765 0
589 1 Si 47.3149 18.5315 1.62134 0
590 1 Si 44.3257 19.9614 1.61439 0
591 1 Si 66.9669 16.3225 1.62343 0
592 1 Si 61.112 17.2824 1.64733 0
593 1 Si 64.2718 18.2137 1.63244 0
594 1 Si 72.7702 17.8264 1.61561 0
595 1 Si 69.5184 18.4907 1.62712 0
596 1 Si 199.026 51.953 1.62525 0
597 1 Si 192.15 52.4741 1.61524 0
598 1 Si 197.688 54.9287 1.61474 0
599 1 Si 192.861 55.4741 1.62736 0
600 1 Si 195.327 57.2784 1.61562 0
601 1 Si 202.084 51.0892 1.61767 0
602 1 Si 106.91 53.1381 1.63089 0
603 1 Si 103.584 53.4134 1.62726 0
604 1 Si 102.38 50.5736 1.61729 0
605 1 Si 84.0831 15.5218 1.61191 0
606 1 Si 87.1698 15.6596 1.60446 0
607 1 Si 93.8221 16.4851 1.64431 0
608 1 Si 97.0051 16.0982 1.63851 0
609 1 Si 137.192 52.839 1.62039 0
610 1 Si 131.862 54.0149 1.61646 0
611 1 Si 134.928 55.0061 1.62942 0
612 1 Si 142.797 52.7491 1.62925 0
613 1 Si 140.058 54.3313 1.61628 0
614 1 Si 146.063 53.0377 1.63386 0
615 1 Si 23.8024 18.3841 1.61719 0
616 1 Si 20.2046 18.6578 1.62317 0
617 1 Si 29.9166 20.0895 1.6186 0
618 1 Si 26.4305 20.5864 1.6173 0
619 1 Si 34.4116 23.256 1.62777 0
620 1 Si 31.2223 23.1548 1.62414 0
621 1 Si 180.285 51.4112 1.60758 0
622 1 Si 186.467 51.9287 1.6106 0
623 1 Si 183.267 52.8251 1.61245 0
624 1 Si 189.186 53.5269 1.63237 0
625 1 Si 55.3512 18.4819 1.62817 0
626 1 Si 49.7635 20.8044 1.60997 0
627 1 Si 53.1543 21.0593 1.62949 0
628 1 Si 58.6362 19.5075 1.64768 0
629 1 Si 0.887225 53.113 1.61535 0
630 1 Si 4.06313 53.0417 1.63141 0
631 1 Si 5.33849 50.045 1.62126 0
632 1 Si 120.474 55.6628 1.60913 0
633 1 Si 117.275 55.5514 1.61203 0
634 1 Si 78.3481 18.6398 1.60681 0
635 1 Si 75.3576 19.9935 1.60654 0
636 1 Si 126.784 55.4981 1.61353 0
637 1 Si 122.258 58.4705 1.62553 0
638 1 Si 125.457 58.3806 1.62702 0
639 1 Si 83.7856 18.6201 1.6367 0
640 1 Si 81.3 20.5529 1.62714 0
641 1 Si 129.83 56.3502 1.62224 0
642 1 Si 111.38 56.3379 1.62124 0
643 1 Si 116.266 58.5329 1.62528 0
644 1 Si 113.164 58.8743 1.62237 0
645 1 Si 86.8676 18.6867 1.62058 0
646 1 Si 92.2854 19.2882 1.60485 0
647 1 Si 89.3414 20.435 1.6246 0
648 1 Si 98.4387 18.9737 1.62965 0
649 1 Si 154.097 54.2774 1.61076 0
650 1 Si 147.653 55.9522 1.62746 0
651 1 Si 151.189 56.3854 1.62184 0
652 1 Si 11.5648 22.4747 1.62749 0
653 1 Si 19.3838 21.8009 1.61221 0
654 1 Si 17.1222 24.0963 1.62106 0
655 1 Si 13.9238 24.7628 1.62233 0
656 1 Si 159.716 53.2096 1.60743 0
657 1 Si 157.273 55.4249 1.62345 0
658 1 Si 21.6293 24.0797 1.6052 0
659 1 Si 24.8416 23.5621 1.62961 0
660 1 Si 39.4371 24.3863 1.63197 0
661 1 Si 36.5317 25.696 1.62313 0
662 1 Si 44.7466 23.212 1.61921 0
663 1 Si 42.4064 25.5732 1.64739 0
664 1 Si 47.9686 23.561 1.61764 0
665 1 Si 202.89 55.8052 1.61281 0
666 1 Si 1.92644 57.5959 1.60717 0
667 1 Si 4.80218 56.2105 1.61844 0
668 1 Si 65.1225 21.3322 1.62907 0
669 1 Si 59.7741 22.7052 1.63572 0
670 1 Si 62.9704 23.7662 1.6211 0
671 1 Si 200.049 56.9669 1.6271 0
672 1 Si 68.3519 21.6015 1.60665 0
673 1 Si 106.39 56.2917 1.63534 0
674 1 Si 108.791 58.1868 1.63044 0
675 1 Si 136.256 57.9836 1.60856 0
676 1 Si 130.725 59.3551 1.623 0
677 1 Si 133.902 60.3084 1.64199 0
678 1 Si 139.522 57.502 1.62275 0
679 1 Si 93.7388 22.1534 1.61769 0
680 1 Si 96.9648 21.9513 1.6337 0
681 1 Si 145.329 58.546 1.60599 0
682 1 Si 142.047 59.5241 1.62887 0
683 1 Si 182.697 55.8452 1.63923 0
684 1 Si 180.453 57.9291 1.60507 0
685 1 Si 177.706 59.2628 1.62464 0
686 1 Si 19.3831 26.4036 1.62556 0
687 1 Si 185.071 57.8686 1.60601 0
688 1 Si 182.802 59.9522 1.60998 0
689 1 Si 189.966 56.547 1.61134 0
690 1 Si 188.02 58.9595 1.63805 0
691 1 Si 26.347 26.3919 1.61564 0
692 1 Si 29.599 26.0123 1.61463 0
693 1 Si 54.4866 24.1725 1.6187 0
694 1 Si 49.2879 26.4695 1.62602 0
695 1 Si 52.5109 26.6893 1.6339 0
696 1 Si 57.6354 25.1685 1.64848 0
697 1 Si 103.712 57.9057 1.61192 0
698 1 Si 101.36 55.8609 1.59766 0
699 1 Si 117.81 61.3458 1.62892 0
700 1 Si 111.497 61.5993 1.62813 0
701 1 Si 116.029 64.0233 1.60458 0
702 1 Si 112.856 64.3909 1.61559 0
703 1 Si 121.001 61.525 1.62185 0
704 1 Si 127.788 60.6946 1.61518 0
705 1 Si 75.2934 23.2226 1.61174 0
706 1 Si 69.4607 24.6953 1.6245 0
707 1 Si 72.6471 24.9727 1.6039 0
708 1 Si 82.4559 23.9065 1.61089 0
709 1 Si 76.9794 25.9489 1.62808 0
710 1 Si 80.1596 26.4551 1.61727 0
711 1 Si 88.6177 23.5294 1.60859 0
712 1 Si 91.6833 24.6964 1.63257 0
713 1 Si 152.016 59.692 1.62929 0
714 1 Si 146.487 61.5766 1.62196 0
715 1 Si 149.668 62.1926 1.64401 0
716 1 Si 98.7952 24.6175 1.62337 0
717 1 Si 158.069 58.6 1.63209 0
718 1 Si 155.271 60.5262 1.6364 0
719 1 Si 161.351 59.5806 1.65409 0
720 1 Si 12.4669 27.794 1.61284 0
721 1 Si 19.3414 29.7404 1.64126 0
722 1 Si 13.1784 30.9585 1.61541 0
723 1 Si 16.4635 31.5545 1.61924 0
724 1 Si 25.1512 29.4906 1.62457 0
725 1 Si 22.3212 31.3604 1.64474 0
726 1 Si 42.3462 28.879 1.62785 0
727 1 Si 36.4617 28.8953 1.63106 0
728 1 Si 39.4108 30.4269 1.62208 0
729 1 Si 47.9363 29.3776 1.63961 0
730 1 Si 45.0489 30.7538 1.62762 0
731 1 Si 194.664 60.6144 1.62325 0
732 1 Si 188.748 62.1164 1.62325 0
733 1 Si 191.996 62.8515 1.6487 0
734 1 Si 0.122348 60.1844 1.63398 0
735 1 Si 200.374 60.0421 1.62608 0
736 1 Si 64.1069 26.9729 1.62523 0
737 1 Si 58.72 28.2692 1.61061 0
738 1 Si 61.7589 29.322 1.60721 0
739 1 Si 1.79373 62.7956 1.63053 0
740 1 Si 5.30048 62.0562 1.63136 0
741 1 Si 6.93213 58.7285 1.62787 0
742 1 Si 197.698 61.7555 1.64134 0
743 1 Si 67.4603 27.4283 1.61622 0
744 1 Si 108.368 61.3467 1.61245 0
745 1 Si 105.605 63.0132 1.65578 0
746 1 Si 103.072 60.9818 1.62082 0
747 1 Si 85.7341 25.0874 1.64269 0
748 1 Si 134.182 63.5735 1.60039 0
749 1 Si 141.195 62.78 1.58651 0
750 1 Si 136.48 65.9721 1.61706 0
751 1 Si 139.684 65.7928 1.62937 0
752 1 Si 92.5736 27.9216 1.63258 0
753 1 Si 98.6436 27.8777 1.63776 0
754 1 Si 95.7043 29.437 1.62268 0
755 1 Si 128.073 63.916 1.6367 0
756 1 Si 131.24 65.0868 1.6118 0
757 1 Si 144.183 63.8737 1.62921 0
758 1 Si 161.488 62.8617 1.64624 0
759 1 Si 155.711 63.7333 1.64351 0
760 1 Si 158.778 64.6637 1.63605 0
761 1 Si 177.526 62.4565 1.61877 0
762 1 Si 183.018 63.0461 1.62351 0
763 1 Si 180.078 64.466 1.62704 0
764 1 Si 30.5596 29.0931 1.63817 0
765 1 Si 27.9682 31.0859 1.6267 0
766 1 Si 164.321 64.4362 1.63405 0
767 1 Si 186.072 64.1532 1.6358 0
768 1 Si 33.5466 30.3616 1.63845 0
769 1 Si 53.1573 29.7696 1.61249 0
770 1 Si 50.427 31.2748 1.62466 0
771 1 Si 116.871 67.1228 1.6111 0
772 1 Si 111.497 67.3268 1.61614 0
773 1 Si 114.259 69.1403 1.61672 0
774 1 Si 57.8307 31.3169 1.61369 0
775 1 Si 54.9389 32.4083 1.63597 0
776 1 Si 122.06 64.6024 1.63308 0
777 1 Si 120.073 67.2509 1.63575 0
778 1 Si 125.182 65.4553 1.64095 0
779 1 Si 74.2846 27.6781 1.60217 0
780 1 Si 69.0831 30.3447 1.62254 0
781 1 Si 72.4114 30.2754 1.62018 0
782 1 Si 86.6911 28.2781 1.63657 0
783 1 Si 80.8256 29.6989 1.61223 0
784 1 Si 84.0548 30.1013 1.62095 0
785 1 Si 150.252 65.4845 1.61739 0
786 1 Si 144.211 67.0897 1.60841 0
787 1 Si 149.295 68.7137 1.6262 0
788 1 Si 146.249 69.5773 1.61496 0
789 1 Si 89.7748 29.7351 1.6426 0
790 1 Si 153.371 65.9851 1.61803 0
791 1 Si 11.0173 33.6672 1.64118 0
792 1 Si 16.1386 34.7997 1.60787 0
793 1 Si 13.1767 36.0137 1.60926 0
794 1 Si 22.6343 34.774 1.6156 0
795 1 Si 17.7434 37.6143 1.62897 0
796 1 Si 20.9089 37.6328 1.61889 0
797 1 Si 192.297 66.205 1.62725 0
798 1 Si 186.031 67.4426 1.63337 0
799 1 Si 189.373 68.3043 1.62789 0
800 1 Si 28.2076 34.342 1.65146 0
801 1 Si 25.5478 36.1946 1.6123 0
802 1 Si 198.57 64.7646 1.6311 0
803 1 Si 195.699 66.6818 1.64619 0
804 1 Si 33.7548 33.5451 1.63558 0
805 1 Si 31.2381 35.4836 1.60835 0
806 1 Si 202.111 64.4961 1.62768 0
807 1 Si 39.4896 33.6823 1.63958 0
808 1 Si 36.5878 35.0559 1.64274 0
809 1 Si 45.0989 34.0712 1.62479 0
810 1 Si 42.2137 35.5495 1.63792 0
811 1 Si 50.6139 34.3744 1.62311 0
812 1 Si 47.8329 35.9112 1.63044 0
813 1 Si 202.897 67.5004 1.62797 0
814 1 Si 2.54978 68.5827 1.64961 0
815 1 Si 5.84866 68.2282 1.62211 0
816 1 Si 7.08871 64.9974 1.61708 0
817 1 Si 60.7551 32.4138 1.62193 0
818 1 Si 68.0482 33.4896 1.63098 0
819 1 Si 61.9821 35.3888 1.62009 0
820 1 Si 65.3302 35.4454 1.602 0
821 1 Si 105.591 66.2878 1.62014 0
822 1 Si 102.617 67.5886 1.62772 0
823 1 Si 99.8566 60.5401 1.62033 0
824 1 Si 98.2233 63.2122 1.63293 0
825 1 Si 99.8646 65.9766 1.62073 0
826 1 Si 108.288 68.2858 1.63066 0
827 1 Si 132.01 68.2115 1.6262 0
828 1 Si 124.702 68.5633 1.60897 0
829 1 Si 129.908 70.5816 1.61512 0
830 1 Si 126.812 70.7849 1.62267 0
831 1 Si 135.15 68.9431 1.60849 0
832 1 Si 141.414 68.7071 1.61099 0
833 1 Si 96.1305 32.7755 1.62201 0
834 1 Si 99.0781 34.4184 1.62303 0
835 1 Si 159.016 67.7995 1.63304 0
836 1 Si 153.709 69.1665 1.61736 0
837 1 Si 156.699 69.969 1.63198 0
838 1 Si 164.555 67.618 1.61726 0
839 1 Si 161.817 69.1994 1.63952 0
840 1 Si 167.685 68.4406 1.61717 0
841 1 Si 176.035 68.1988 1.62419 0
842 1 Si 168.409 71.6238 1.63188 0
843 1 Si 171.722 72.2602 1.60922 0
844 1 Si 175.035 71.3787 1.62662 0
845 1 Si 179.673 67.7232 1.62154 0
846 1 Si 182.949 69.3059 1.63736 0
847 1 Si 53.6401 35.3783 1.60821 0
848 1 Si 121.823 69.8769 1.5971 0
849 1 Si 113.959 72.439 1.63021 0
850 1 Si 122.312 73.0275 1.63808 0
851 1 Si 116.673 74.635 1.60085 0
852 1 Si 120.077 75.2858 1.61685 0
853 1 Si 73.625 33.2247 1.61276 0
854 1 Si 70.9264 35.0012 1.60797 0
855 1 Si 79.405 32.679 1.62647 0
856 1 Si 76.6451 34.4315 1.63119 0
857 1 Si 84.7072 33.1456 1.63392 0
858 1 Si 81.9443 34.6135 1.61859 0
859 1 Si 90.268 33.0548 1.64959 0