ITEM: TIMESTEP
1374
ITEM: NUMBER OF ATOMS
15564
ITEM: BOX BOUNDS pp pp pp
0.0000000000000000e+00 2.0464901510873494e+02
0.0000000000000000e+00 1.7704771998711755e+02
-1.0000000000000000e+02 1.0000000000000000e+02
ITEM: ATOMS id type element x y z v_uncoordination
1 1 Si 139.812 30.4587 1.63082 0
2 1 Si 137.22 28.4734 1.62345 0
3 1 Si 142.533 28.6188 1.6203 0
4 1 Si 141.505 25.5258 1.60791 0
5 1 Si 138.313 25.364 1.60222 0
6 1 Si 139.396 33.7073 1.63919 0
7 1 Si 134.278 29.8467 1.64482 0
8 1 Si 133.734 33.0027 1.63122 0
9 1 Si 136.336 34.8932 1.62575 0
10 1 Si 145.793 29.3221 1.64668 0
11 1 Si 146.972 32.4543 1.62424 0
12 1 Si 145.104 35.1323 1.61322 0
13 1 Si 141.923 35.7901 1.62078 0
14 1 Si 199.225 40.6551 1.60519 0
15 1 Si 198.816 37.3561 1.60471 0
16 1 Si 196.185 41.9041 1.62286 0
17 1 Si 195.679 35.9202 1.62566 0
18 1 Si 192.751 37.4626 1.62703 0
19 1 Si 193.292 40.4798 1.61589 0
20 1 Si 202.401 41.638 1.6152 0
21 1 Si 201.92 36.2167 1.62635 0
22 1 Si 204.192 38.8864 1.60774 0
23 1 Si 194.717 44.7704 1.61803 0
24 1 Si 196.363 47.5276 1.60408 0
25 1 Si 203.539 44.6543 1.63677 0
26 1 Si 201.991 47.4012 1.61687 0
27 1 Si 199.268 48.9484 1.63038 0
28 1 Si 179.669 52.2986 1.63178 0
29 1 Si 181.02 49.4453 1.64037 0
30 1 Si 176.579 53.1354 1.62795 0
31 1 Si 175.418 47.9006 1.63877 0
32 1 Si 178.68 47.1949 1.63865 0
33 1 Si 174.22 50.9572 1.62739 0
34 1 Si 181.587 54.7862 1.618 0
35 1 Si 186.299 51.8123 1.63404 0
36 1 Si 184.752 54.6048 1.64747 0
37 1 Si 184.306 49.2058 1.64493 0
38 1 Si 176.513 56.3542 1.62895 0
39 1 Si 179.658 57.334 1.60607 0
40 1 Si 111.652 3.88718 1.5908 0
41 1 Si 108.55 2.55152 1.62877 0
42 1 Si 105.542 7.58344 1.60544 0
43 1 Si 105.69 4.15832 1.62147 0
44 1 Si 114.209 6.08058 1.6254 0
45 1 Si 107.394 10.4842 1.63734 0
46 1 Si 113.743 9.25883 1.62703 0
47 1 Si 110.715 10.5953 1.61287 0
48 1 Si 113.482 1.23999 1.61969 0
49 1 Si 111.691 175.604 1.60916 0
50 1 Si 108.53 176.25 1.60601 0
51 1 Si 102.246 7.91539 1.62276 0
52 1 Si 100.715 4.89731 1.61267 0
53 1 Si 102.78 2.32472 1.60927 0
54 1 Si 116.687 1.84165 1.61766 0
55 1 Si 117.412 5.0154 1.60734 0
56 1 Si 118.92 176.527 1.6544 0
57 1 Si 123.899 5.44191 1.63375 0
58 1 Si 120.617 6.06058 1.63871 0
59 1 Si 124.393 2.40654 1.61771 0
60 1 Si 122.096 0.245149 1.59517 0
61 1 Si 115.253 171.437 1.6321 0
62 1 Si 112.111 172.377 1.61445 0
63 1 Si 118.058 173.319 1.61263 0
64 1 Si 126.651 7.19894 1.60511 0
65 1 Si 121.459 9.05822 1.62221 0
66 1 Si 124.577 9.53545 1.62041 0
67 1 Si 126.845 0.474431 1.62323 0
68 1 Si 124.577 175.281 1.60552 0
69 1 Si 131.219 4.3448 1.62719 0
70 1 Si 130.015 0.90318 1.62591 0
71 1 Si 129.905 7.60171 1.63637 0
72 1 Si 134.473 4.29071 1.61564 0
73 1 Si 135.717 1.22979 1.61307 0
74 1 Si 131.237 174.643 1.61571 0
75 1 Si 134.539 175.168 1.62936 0
76 1 Si 139.697 4.90995 1.62389 0
77 1 Si 136.862 6.60128 1.62152 0
78 1 Si 138.947 1.75004 1.63131 0
79 1 Si 142.878 5.96941 1.63586 0
80 1 Si 143.24 9.30657 1.63672 0
81 1 Si 137.305 9.86523 1.61827 0
82 1 Si 140.366 10.7604 1.6259 0
83 1 Si 145.294 3.5266 1.61199 0
84 1 Si 144.394 0.224296 1.62348 0
85 1 Si 141.185 176.411 1.63709 0
86 1 Si 148.649 3.9303 1.63369 0
87 1 Si 149.842 6.9871 1.60752 0
88 1 Si 145.536 11.8134 1.60593 0
89 1 Si 150.234 10.1807 1.63054 0
90 1 Si 148.745 12.97 1.62144 0
91 1 Si 150.696 1.19744 1.61258 0
92 1 Si 149.604 175.186 1.62994 0
93 1 Si 146.424 174.58 1.6409 0
94 1 Si 155.242 5.49049 1.60516 0
95 1 Si 155.871 2.46676 1.60357 0
96 1 Si 153.839 0.144726 1.62868 0
97 1 Si 152.943 7.45364 1.60585 0
98 1 Si 158.078 6.80286 1.60144 0
99 1 Si 158.66 3.7352 1.63372 0
100 1 Si 151.88 172.838 1.62051 0
101 1 Si 154.894 174.085 1.61071 0
102 1 Si 163.249 5.11543 1.60221 0
103 1 Si 161.405 2.49351 1.6271 0
104 1 Si 163.801 8.29977 1.6388 0
105 1 Si 158.666 9.94371 1.64142 0
106 1 Si 161.755 10.8627 1.63044 0
107 1 Si 165.69 3.08356 1.60971 0
108 1 Si 165.024 176.985 1.61757 0
109 1 Si 161.901 176.409 1.60447 0
110 1 Si 167.866 5.50275 1.62413 0
111 1 Si 166.98 8.78514 1.62736 0
112 1 Si 170.779 4.16934 1.62532 0
113 1 Si 171.449 0.678696 1.62103 0
114 1 Si 166.673 174.23 1.6167 0
115 1 Si 170.006 174.522 1.63948 0
116 1 Si 176.363 2.98489 1.64084 0
117 1 Si 175.441 6.00694 1.63179 0
118 1 Si 174.695 0.262235 1.62544 0
119 1 Si 172.505 7.0876 1.63011 0
120 1 Si 179.495 2.78561 1.63483 0
121 1 Si 181.341 5.32385 1.61464 0
122 1 Si 177.351 8.50642 1.63643 0
123 1 Si 180.444 8.30439 1.62546 0
124 1 Si 181.202 0.158955 1.62715 0
125 1 Si 176.5 174.567 1.62223 0
126 1 Si 179.748 174.394 1.64175 0
127 1 Si 184.348 4.44264 1.61602 0
128 1 Si 184.177 1.28553 1.62126 0
129 1 Si 189.527 0.591925 1.61678 0
130 1 Si 186.498 176.262 1.62633 0
131 1 Si 191.421 3.25409 1.636 0
132 1 Si 186.527 6.69459 1.62698 0
133 1 Si 189.651 5.95857 1.60767 0
134 1 Si 191.572 175.279 1.64138 0
135 1 Si 187.277 171.307 1.62967 0
136 1 Si 184.891 173.291 1.62303 0
137 1 Si 190.173 172.516 1.62456 0
138 1 Si 196.803 0.667539 1.61027 0
139 1 Si 194.68 175.396 1.6225 0
140 1 Si 194.791 3.17664 1.62752 0
141 1 Si 196.559 5.81663 1.61242 0
142 1 Si 199.884 6.09402 1.63161 0
143 1 Si 194.352 8.30419 1.62353 0
144 1 Si 199.355 9.35852 1.6144 0
145 1 Si 196.385 10.6927 1.60156 0
146 1 Si 199.745 176.424 1.62992 0
147 1 Si 196.379 172.825 1.63656 0
148 1 Si 199.425 173.277 1.6338 0
149 1 Si 202.567 3.80483 1.62764 0
150 1 Si 202.737 0.382201 1.63085 0
151 1 Si 1.05848 4.67245 1.64145 0
152 1 Si 3.2082 1.76736 1.62806 0
153 1 Si 1.23935 8.2122 1.63861 0
154 1 Si 4.42468 8.37556 1.64844 0
155 1 Si 6.25074 5.79539 1.6292 0
156 1 Si 6.24454 2.61623 1.63244 0
157 1 Si 0.197139 174.718 1.64192 0
158 1 Si 3.38118 175.332 1.63132 0
159 1 Si 105.899 13.5897 1.62827 0
160 1 Si 102.604 13.7389 1.60309 0
161 1 Si 100.835 10.9698 1.61069 0
162 1 Si 116.408 11.2822 1.61915 0
163 1 Si 111.906 13.5211 1.61537 0
164 1 Si 114.986 14.0917 1.62809 0
165 1 Si 119.672 11.6386 1.62475 0
166 1 Si 130.742 10.9892 1.61359 0
167 1 Si 133.087 13.3845 1.62482 0
168 1 Si 136.233 12.9978 1.6252 0
169 1 Si 153.395 10.5598 1.59719 0
170 1 Si 156.215 12.1279 1.63121 0
171 1 Si 172.839 10.3997 1.64255 0
172 1 Si 167.887 12.1077 1.63366 0
173 1 Si 171.033 13.0951 1.62759 0
174 1 Si 175.912 11.2788 1.63721 0
175 1 Si 182.507 10.7557 1.63335 0
176 1 Si 185.663 9.8211 1.6169 0
177 1 Si 191.115 8.80016 1.60618 0
178 1 Si 201.038 12.112 1.62097 0
179 1 Si 204.25 11.3534 1.64049 0
180 1 Si 107.373 16.5475 1.61552 0
181 1 Si 110.463 16.2201 1.60178 0
182 1 Si 191.125 49.5428 1.61779 0
183 1 Si 194.366 50.0207 1.61454 0
184 1 Si 191.411 44.5533 1.62425 0
185 1 Si 189.14 46.8217 1.61593 0
186 1 Si 189.557 52.2901 1.63003 0
187 1 Si 191.439 55.011 1.62191 0
188 1 Si 186.548 57.1904 1.62688 0
189 1 Si 189.689 57.5977 1.61426 0
190 1 Si 196.154 52.6958 1.64278 0
191 1 Si 194.665 55.5257 1.62757 0
192 1 Si 125.22 12.5693 1.62631 0
193 1 Si 122.185 13.77 1.62448 0
194 1 Si 128.356 13.2272 1.62645 0
195 1 Si 140.862 13.8658 1.6223 0
196 1 Si 143.949 14.6111 1.61094 0
197 1 Si 162.578 14.0923 1.64523 0
198 1 Si 165.875 14.8142 1.62827 0
199 1 Si 177.629 13.9596 1.62534 0
200 1 Si 180.935 13.6144 1.63326 0
201 1 Si 188.692 11.0709 1.63201 0
202 1 Si 195.875 13.9188 1.62622 0
203 1 Si 199.119 14.9393 1.62392 0
204 1 Si 1.10224 14.283 1.59914 0
205 1 Si 4.20166 13.7158 1.61431 0
206 1 Si 5.95084 11.1459 1.6536 0
207 1 Si 108.285 19.6595 1.63505 0
208 1 Si 107.49 22.7481 1.62063 0
209 1 Si 104.179 21.4909 1.60406 0
210 1 Si 101.35 19.4142 1.61785 0
211 1 Si 100.427 16.2379 1.62257 0
212 1 Si 115.988 17.1037 1.63262 0
213 1 Si 121.876 16.9338 1.6274 0
214 1 Si 118.932 18.2171 1.61774 0
215 1 Si 129.297 16.2999 1.61622 0
216 1 Si 132.444 16.5775 1.61034 0
217 1 Si 138.289 15.686 1.62835 0
218 1 Si 156.775 15.4454 1.63309 0
219 1 Si 150.573 16.0403 1.62068 0
220 1 Si 153.963 17.4938 1.64886 0
221 1 Si 160.132 16.4361 1.63063 0
222 1 Si 172.421 16.2359 1.6337 0
223 1 Si 175.771 16.6636 1.64387 0
224 1 Si 189.193 14.2839 1.62106 0
225 1 Si 186.228 16.1668 1.60858 0
226 1 Si 182.828 16.2176 1.6297 0
227 1 Si 192.605 15.1844 1.62141 0
228 1 Si 200.311 18.0942 1.60165 0
229 1 Si 1.09126 17.5512 1.63135 0
230 1 Si 203.257 19.4945 1.62277 0
231 1 Si 111.346 19.1839 1.58886 0
232 1 Si 114.333 19.8746 1.6354 0
233 1 Si 124.36 19.0049 1.61108 0
234 1 Si 127.516 18.9078 1.62949 0
235 1 Si 144.924 17.6464 1.62756 0
236 1 Si 139.216 18.9578 1.61991 0
237 1 Si 142.418 19.805 1.62175 0
238 1 Si 148.155 18.3177 1.63246 0
239 1 Si 167.221 17.9738 1.63224 0
240 1 Si 161.58 19.5497 1.62035 0
241 1 Si 164.89 20.2648 1.63234 0
242 1 Si 170.526 19.0191 1.63319 0
243 1 Si 192.431 18.3742 1.61949 0
244 1 Si 189.684 20.0862 1.61833 0
245 1 Si 186.515 19.4017 1.6139 0
246 1 Si 195.091 20.0278 1.55426 0
247 1 Si 199.945 21.2797 1.56777 0
248 1 Si 197.258 22.5644 1.60783 0
249 1 Si 3.95738 18.9826 1.61973 0
250 1 Si 5.69657 16.3997 1.62429 0
251 1 Si 118.663 21.3999 1.6123 0
252 1 Si 123.917 22.1707 1.61284 0
253 1 Si 121.063 23.4276 1.64239 0
254 1 Si 115.768 22.7187 1.59925 0
255 1 Si 133.498 19.5684 1.57746 0
256 1 Si 128.611 21.9231 1.6141 0
257 1 Si 131.692 22.179 1.60378 0
258 1 Si 137.895 22.0392 1.56049 0
259 1 Si 134.868 22.4145 1.59578 0
260 1 Si 154.538 21.0356 1.63295 0
261 1 Si 148.862 21.4602 1.64018 0
262 1 Si 151.771 22.8254 1.61618 0
263 1 Si 157.088 23.438 1.63186 0
264 1 Si 160.373 22.6336 1.62607 0
265 1 Si 177.538 19.4902 1.62789 0
266 1 Si 171.943 22.3164 1.62467 0
267 1 Si 175.895 22.514 1.60898 0
268 1 Si 180.946 18.9828 1.61888 0
269 1 Si 193.845 23.2903 1.60865 0
270 1 Si 190.759 23.0553 1.61359 0
271 1 Si 203.745 22.6981 1.60255 0
272 1 Si 201.036 24.3107 1.58946 0
273 1 Si 109.813 25.7353 1.6114 0
274 1 Si 115.586 25.9729 1.63689 0
275 1 Si 112.842 27.5477 1.62639 0
276 1 Si 126.41 24.1738 1.62288 0
277 1 Si 143.405 22.9281 1.65322 0
278 1 Si 146.559 23.6969 1.62902 0
279 1 Si 166.036 23.3949 1.62833 0
280 1 Si 169.264 24.8181 1.62559 0
281 1 Si 183.543 20.984 1.61602 0
282 1 Si 196.159 25.443 1.61672 0
283 1 Si 1.20718 25.0992 1.64597 0
284 1 Si 4.31982 24.6919 1.63159 0
285 1 Si 5.50363 21.7449 1.63833 0
286 1 Si 102.983 24.4201 1.61636 0
287 1 Si 98.5109 21.0659 1.61794 0
288 1 Si 99.8497 23.8932 1.63218 0
289 1 Si 109.219 28.9872 1.62259 0
290 1 Si 106.149 29.6425 1.62019 0
291 1 Si 103.753 27.4888 1.62437 0
292 1 Si 120.887 26.6172 1.62025 0
293 1 Si 118.115 28.1089 1.62203 0
294 1 Si 126.254 27.4044 1.64367 0
295 1 Si 123.318 28.7078 1.62308 0
296 1 Si 133.032 25.0156 1.59867 0
297 1 Si 151.034 26.0232 1.62878 0
298 1 Si 156.296 26.8236 1.60169 0
299 1 Si 153.307 28.2781 1.61332 0
300 1 Si 163.03 24.7602 1.61953 0
301 1 Si 182.565 24.1207 1.64611 0
302 1 Si 178.712 24.8417 1.62797 0
303 1 Si 185.729 25.6512 1.62445 0
304 1 Si 189.111 25.6707 1.63369 0
305 1 Si 114.155 30.8598 1.61945 0
306 1 Si 111.155 31.7304 1.63341 0
307 1 Si 131.71 27.9542 1.62976 0
308 1 Si 128.752 29.4647 1.62914 0
309 1 Si 147.822 26.6843 1.61009 0
310 1 Si 169.274 28.4503 1.62518 0
311 1 Si 163.345 28.0223 1.63275 0
312 1 Si 166.128 29.8344 1.63241 0
313 1 Si 178.024 28.1473 1.6297 0
314 1 Si 175.329 30.3195 1.61372 0
315 1 Si 171.868 30.8939 1.63926 0
316 1 Si 180.863 29.8373 1.58762 0
317 1 Si 186.385 28.7639 1.62278 0
318 1 Si 183.97 30.6688 1.62039 0
319 1 Si 191.492 27.9789 1.60185 0
320 1 Si 196.975 28.5393 1.64075 0
321 1 Si 194.17 29.8961 1.62342 0
322 1 Si 201.391 27.4379 1.61515 0
323 1 Si 204.497 27.9862 1.60408 0
324 1 Si 105.727 32.8578 1.6184 0
325 1 Si 102.654 33.7029 1.62241 0
326 1 Si 100.793 28.6581 1.61883 0
327 1 Si 100.17 31.7026 1.62516 0
328 1 Si 119.127 31.2795 1.63109 0
329 1 Si 116.699 33.4116 1.63658 0
330 1 Si 122.41 31.8119 1.62027 0
331 1 Si 157.697 29.81 1.62352 0
332 1 Si 152.771 31.6119 1.62116 0
333 1 Si 155.862 32.619 1.61731 0
334 1 Si 160.874 30.1169 1.61785 0
335 1 Si 177.015 33.1383 1.62194 0
336 1 Si 180.147 32.9067 1.62266 0
337 1 Si 189.278 30.1161 1.62333 0
338 1 Si 199.814 30.1786 1.61943 0
339 1 Si 0.172327 31.17 1.62274 0
340 1 Si 3.14233 32.3521 1.63352 0
341 1 Si 5.66581 30.2582 1.62204 0
342 1 Si 6.34441 27.1427 1.637 0
343 1 Si 107.87 35.2203 1.63082 0
344 1 Si 111.013 35.0235 1.60581 0
345 1 Si 128.04 32.818 1.63032 0
346 1 Si 124.805 34.1834 1.64121 0
347 1 Si 130.898 34.5755 1.62325 0
348 1 Si 150.093 33.7186 1.62078 0
349 1 Si 165.11 33.0737 1.62448 0
350 1 Si 161.92 33.1578 1.62357 0
351 1 Si 171.086 34.3389 1.61053 0
352 1 Si 165.659 36.4732 1.62841 0
353 1 Si 168.807 36.8167 1.62469 0
354 1 Si 176.375 36.2843 1.63453 0
355 1 Si 173.256 36.7709 1.62415 0
356 1 Si 182.388 35.1913 1.64299 0
357 1 Si 185.156 33.6719 1.61969 0
358 1 Si 190.825 32.8542 1.60545 0
359 1 Si 194.027 33.1105 1.62327 0
360 1 Si 11.134 3.45067 1.63305 0
361 1 Si 9.34294 5.99135 1.63919 0
362 1 Si 9.08513 1.08093 1.61938 0
363 1 Si 14.2918 3.47777 1.64431 0
364 1 Si 15.9384 6.17169 1.63388 0
365 1 Si 10.8613 8.6344 1.63216 0
366 1 Si 13.9898 8.62735 1.63629 0
367 1 Si 15.9777 0.816514 1.63996 0
368 1 Si 10.7407 175.38 1.63587 0
369 1 Si 14.0684 175.244 1.63936 0
370 1 Si 201.949 32.7777 1.62405 0
371 1 Si 21.1189 3.79593 1.6225 0
372 1 Si 19.16 6.37983 1.64159 0
373 1 Si 19.2234 1.13945 1.62238 0
374 1 Si 24.5032 3.92495 1.61992 0
375 1 Si 26.0497 7.07177 1.63549 0
376 1 Si 20.4366 9.30973 1.63834 0
377 1 Si 23.7416 9.62277 1.63139 0
378 1 Si 25.7726 0.767115 1.63362 0
379 1 Si 20.6731 175.419 1.60724 0
380 1 Si 23.8144 175.178 1.58967 0
381 1 Si 107.333 38.3352 1.61296 0
382 1 Si 104.29 38.762 1.63422 0
383 1 Si 101.917 36.7429 1.64131 0
384 1 Si 33.5383 4.13933 1.63636 0
385 1 Si 33.0702 7.21873 1.62104 0
386 1 Si 31.5541 1.65731 1.60109 0
387 1 Si 29.5601 8.02301 1.61718 0
388 1 Si 28.8997 176.951 1.63773 0
389 1 Si 36.7672 3.89234 1.61318 0
390 1 Si 39.8304 4.80668 1.64457 0
391 1 Si 40.0819 7.8973 1.62965 0
392 1 Si 36.581 8.26192 1.62837 0
393 1 Si 37.0801 0.844503 1.61539 0
394 1 Si 42.3647 2.86981 1.62724 0
395 1 Si 40.2137 0.561529 1.62362 0
396 1 Si 34.1396 176.886 1.63229 0
397 1 Si 117.426 37.073 1.62345 0
398 1 Si 111.972 38.211 1.63297 0
399 1 Si 114.901 39.5545 1.6234 0
400 1 Si 45.5748 3.25717 1.64587 0
401 1 Si 45.8721 6.52629 1.62373 0
402 1 Si 43.3599 8.80494 1.64884 0
403 1 Si 48.0491 0.937976 1.6232 0
404 1 Si 44.3217 173.904 1.61338 0
405 1 Si 47.356 174.778 1.63816 0
406 1 Si 41.3047 174.784 1.62459 0
407 1 Si 123.874 37.5763 1.63914 0
408 1 Si 120.425 38.8598 1.64718 0
409 1 Si 51.4681 4.82615 1.61528 0
410 1 Si 51.3774 1.48892 1.63159 0
411 1 Si 49.0372 7.07649 1.6265 0
412 1 Si 60.3704 4.82169 1.56976 0
413 1 Si 57.7157 6.37731 1.64054 0
414 1 Si 60.9044 7.8525 1.60311 0
415 1 Si 58.0483 9.6327 1.55915 0
416 1 Si 56.3251 3.74502 1.58903 0
417 1 Si 58.7963 1.11231 1.61963 0
418 1 Si 63.0711 3.45846 1.64559 0
419 1 Si 62.2348 0.44541 1.63924 0
420 1 Si 53.9707 6.87561 1.59906 0
421 1 Si 57.3847 175.251 1.62889 0
422 1 Si 53.8597 175.956 1.61275 0
423 1 Si 64.8281 6.11818 1.64511 0
424 1 Si 63.6996 9.11868 1.59112 0
425 1 Si 67.8628 5.53643 1.6178 0
426 1 Si 68.7817 2.41165 1.61801 0
427 1 Si 72.4598 6.04753 1.64002 0
428 1 Si 69.9009 8.06359 1.61677 0
429 1 Si 71.9158 2.87228 1.64124 0
430 1 Si 64.7986 175.293 1.62285 0
431 1 Si 67.8405 176.371 1.63303 0
432 1 Si 156.978 35.7462 1.61912 0
433 1 Si 160.224 35.906 1.60677 0
434 1 Si 75.5975 6.77986 1.62838 0
435 1 Si 76.1613 10.0048 1.64608 0
436 1 Si 70.0462 11.404 1.63458 0
437 1 Si 73.4401 11.9848 1.63194 0
438 1 Si 77.9482 4.41812 1.62714 0
439 1 Si 77.3413 1.14995 1.65165 0
440 1 Si 74.1324 0.4899 1.63625 0
441 1 Si 81.07 5.43708 1.63764 0
442 1 Si 81.8072 8.72188 1.64262 0
443 1 Si 79.3773 10.9941 1.62819 0
444 1 Si 83.4516 3.18006 1.62124 0
445 1 Si 82.6268 174.534 1.61553 0
446 1 Si 79.4977 175.638 1.6214 0
447 1 Si 84.4686 0.0464079 1.63357 0
448 1 Si 87.222 7.52558 1.64049 0
449 1 Si 86.3161 4.48977 1.63084 0
450 1 Si 84.9601 9.8059 1.6478 0
451 1 Si 181.762 38.3282 1.63395 0
452 1 Si 178.526 38.7781 1.63348 0
453 1 Si 92.4631 5.81263 1.62628 0
454 1 Si 95.5039 6.74215 1.60726 0
455 1 Si 90.3436 8.15849 1.63273 0
456 1 Si 95.04 10.0465 1.62968 0
457 1 Si 91.8196 11.0004 1.61706 0
458 1 Si 91.5373 2.83016 1.62239 0
459 1 Si 97.4871 4.052 1.63442 0
460 1 Si 93.0404 0.0226218 1.617 0
461 1 Si 96.2935 0.740037 1.63129 0
462 1 Si 88.4871 2.2765 1.63556 0
463 1 Si 97.6393 12.0346 1.62213 0
464 1 Si 188.2 34.6621 1.61815 0
465 1 Si 9.09328 11.1736 1.61684 0
466 1 Si 15.0915 11.5139 1.59986 0
467 1 Si 18.2215 11.6948 1.63948 0
468 1 Si 3.64104 35.6047 1.6051 0
469 1 Si 6.70932 36.169 1.60878 0
470 1 Si 8.6592 31.3074 1.61315 0
471 1 Si 9.19057 34.3152 1.62202 0
472 1 Si 30.2758 11.1691 1.62547 0
473 1 Si 24.3776 12.8128 1.62504 0
474 1 Si 26.3182 15.4485 1.62232 0
475 1 Si 29.1657 14.1855 1.6309 0
476 1 Si 36.4755 11.3756 1.62733 0
477 1 Si 33.32 11.901 1.6332 0
478 1 Si 109.602 40.5485 1.64077 0
479 1 Si 49.6143 10.2862 1.64298 0
480 1 Si 44.1792 12.0214 1.62118 0
481 1 Si 47.4232 12.8273 1.63576 0
482 1 Si 132.069 37.7127 1.6268 0
483 1 Si 126.554 39.8402 1.61784 0
484 1 Si 129.99 40.2746 1.61778 0
485 1 Si 52.8708 10.3685 1.63739 0
486 1 Si 135.466 38.0043 1.62229 0
487 1 Si 62.5312 12.1252 1.63045 0
488 1 Si 59.2786 12.4516 1.62249 0
489 1 Si 150.031 37.2127 1.63927 0
490 1 Si 146.786 37.9334 1.61144 0
491 1 Si 67.4362 13.9232 1.62332 0
492 1 Si 64.0044 14.9823 1.63356 0
493 1 Si 155.734 38.83 1.61473 0
494 1 Si 152.499 39.7345 1.62622 0
495 1 Si 160.939 39.081 1.61947 0
496 1 Si 164.095 39.6935 1.63346 0
497 1 Si 86.2185 12.8698 1.64178 0
498 1 Si 80.321 14.2299 1.62082 0
499 1 Si 83.6735 15.0641 1.62776 0
500 1 Si 89.6172 13.5022 1.63307 0
501 1 Si 172.488 39.9144 1.63093 0
502 1 Si 169.343 40.1253 1.6225 0
503 1 Si 97.1541 15.3445 1.61091 0
504 1 Si 189.442 37.5114 1.631 0
505 1 Si 184.19 40.6176 1.64046 0
506 1 Si 187.45 40.0397 1.63857 0
507 1 Si 12.0551 12.2715 1.62635 0
508 1 Si 2.89552 38.8355 1.63097 0
509 1 Si 19.0598 14.677 1.6445 0
510 1 Si 22.1327 14.9776 1.61983 0
511 1 Si 38.7219 13.7195 1.63841 0
512 1 Si 33.6566 14.9077 1.61278 0
513 1 Si 36.5355 15.9598 1.60126 0
514 1 Si 119.786 42.3281 1.63688 0
515 1 Si 114.355 43.1814 1.62633 0
516 1 Si 117.14 44.7935 1.63651 0
517 1 Si 41.9072 14.4344 1.62788 0
518 1 Si 125.735 42.9822 1.61845 0
519 1 Si 122.592 43.921 1.63851 0
520 1 Si 141.314 39.0049 1.60269 0
521 1 Si 138.11 40.1759 1.65107 0
522 1 Si 53.7474 13.8455 1.63469 0
523 1 Si 56.9846 14.7671 1.60696 0
524 1 Si 144.379 40.2606 1.60724 0
525 1 Si 158.257 40.9986 1.61475 0
526 1 Si 74.4751 15.0529 1.62691 0
527 1 Si 77.618 16.2445 1.63267 0
528 1 Si 177.643 41.8907 1.64644 0
529 1 Si 174.429 42.4955 1.63956 0
530 1 Si 90.8895 16.6032 1.63436 0
531 1 Si 94.3 17.4443 1.64061 0
532 1 Si 183.336 43.8019 1.63441 0
533 1 Si 179.98 44.2139 1.63752 0
534 1 Si 190.261 41.6272 1.61704 0
535 1 Si 11.4426 15.1604 1.63629 0
536 1 Si 8.70936 16.4313 1.61292 0
537 1 Si 12.9369 17.7369 1.60623 0
538 1 Si 17.7437 17.504 1.60372 0
539 1 Si 15.3179 19.5204 1.63212 0
540 1 Si 5.61228 41.0925 1.62561 0
541 1 Si 8.00208 39.0043 1.604 0
542 1 Si 22.6516 18.0697 1.62721 0
543 1 Si 25.6608 18.7438 1.64197 0
544 1 Si 103.525 41.6647 1.61137 0
545 1 Si 100.579 42.3753 1.6243 0
546 1 Si 98.9041 37.5842 1.64724 0
547 1 Si 98.1619 40.6004 1.6258 0
548 1 Si 109.08 43.9084 1.62237 0
549 1 Si 103.932 44.6499 1.65561 0
550 1 Si 106.551 46.1442 1.6069 0
551 1 Si 31.1396 16.6295 1.60421 0
552 1 Si 111.767 45.7366 1.6206 0
553 1 Si 48.3622 16.0716 1.65112 0
554 1 Si 42.8669 17.6387 1.63156 0
555 1 Si 46.0661 18.5718 1.63814 0
556 1 Si 51.6629 16.7585 1.6272 0
557 1 Si 131.292 43.4655 1.62188 0
558 1 Si 128.37 45.0233 1.62552 0
559 1 Si 68.6955 16.875 1.63086 0
560 1 Si 61.4701 18.2207 1.63173 0
561 1 Si 67.3549 19.7888 1.61606 0
562 1 Si 65.2848 22.275 1.64148 0
563 1 Si 62.1153 21.7374 1.62071 0
564 1 Si 137.65 43.5226 1.62255 0
565 1 Si 134.469 45.1015 1.63664 0
566 1 Si 71.9071 16.9413 1.63024 0
567 1 Si 152.34 43.1745 1.63427 0
568 1 Si 143.744 43.4907 1.61882 0
569 1 Si 149.697 45.0007 1.62416 0
570 1 Si 146.537 45.0039 1.60882 0
571 1 Si 84.9281 18.0916 1.6314 0
572 1 Si 88.2264 18.63 1.63365 0
573 1 Si 157.843 44.2966 1.63604 0
574 1 Si 154.791 45.4532 1.62488 0
575 1 Si 168.076 43.2054 1.64624 0
576 1 Si 164.802 43.1803 1.6204 0
577 1 Si 173.172 45.5249 1.63648 0
578 1 Si 169.884 46.0513 1.64012 0
579 1 Si 10.2101 19.0903 1.61298 0
580 1 Si 185.721 46.2805 1.62894 0
581 1 Si 19.9976 19.7032 1.62651 0
582 1 Si 35.1274 18.799 1.63297 0
583 1 Si 31.9749 19.5841 1.6464 0
584 1 Si 40.7254 20.099 1.62473 0
585 1 Si 37.5918 20.6425 1.61687 0
586 1 Si 100.992 45.3584 1.64193 0
587 1 Si 58.0061 18.0271 1.61636 0
588 1 Si 52.3752 20.2739 1.64593 0
589 1 Si 55.7983 20.9067 1.638 0
590 1 Si 121.925 47.0061 1.62916 0
591 1 Si 116.31 48.3526 1.61897 0
592 1 Si 119.386 48.9719 1.63287 0
593 1 Si 77.8195 19.5124 1.6264 0
594 1 Si 72.5879 19.9486 1.63113 0
595 1 Si 75.2609 21.396 1.61971 0
596 1 Si 83.1481 20.8527 1.62981 0
597 1 Si 80.0459 21.7785 1.62088 0
598 1 Si 140.712 45.1264 1.61987 0
599 1 Si 95.2228 20.7569 1.62633 0
600 1 Si 88.3897 21.8064 1.61506 0
601 1 Si 90.3902 24.3206 1.633 0
602 1 Si 93.645 23.8766 1.62143 0
603 1 Si 149.601 48.2207 1.63301 0
604 1 Si 146.431 48.1612 1.61084 0
605 1 Si 163.322 46.3946 1.62982 0
606 1 Si 159.949 46.8403 1.61892 0
607 1 Si 8.65811 21.6913 1.61858 0
608 1 Si 19.2304 22.7736 1.62028 0
609 1 Si 13.8603 22.4102 1.6276 0
610 1 Si 16.3654 24.2373 1.61696 0
611 1 Si 26.3747 22.053 1.63293 0
612 1 Si 21.1922 25.2834 1.62573 0
613 1 Si 24.4463 25.106 1.64134 0
614 1 Si 1.71559 46.1862 1.60338 0
615 1 Si 4.94224 46.5236 1.63317 0
616 1 Si 7.17644 44.2079 1.62158 0
617 1 Si 29.6789 21.8803 1.63146 0
618 1 Si 105.028 49.1457 1.60928 0
619 1 Si 111.053 49.3419 1.63292 0
620 1 Si 107.869 51.0527 1.63902 0
621 1 Si 46.6572 21.9258 1.63708 0
622 1 Si 41.4555 23.2103 1.63673 0
623 1 Si 44.3377 24.4743 1.62291 0
624 1 Si 127.713 48.2476 1.62387 0
625 1 Si 124.564 48.6994 1.62878 0
626 1 Si 49.7812 22.9378 1.61589 0
627 1 Si 134.648 48.5486 1.61549 0
628 1 Si 129.205 51.2588 1.62854 0
629 1 Si 132.453 51.1319 1.62413 0
630 1 Si 140.708 48.5077 1.6304 0
631 1 Si 137.648 49.9734 1.62213 0
632 1 Si 69.9487 21.483 1.62495 0
633 1 Si 69.732 24.501 1.6147 0
634 1 Si 66.702 25.2013 1.60686 0
635 1 Si 154.754 48.8035 1.61864 0
636 1 Si 151.889 50.6039 1.62731 0
637 1 Si 85.4511 22.9883 1.60526 0
638 1 Si 168.635 49.2328 1.6533 0
639 1 Si 165.115 49.3381 1.61483 0
640 1 Si 171.021 51.8252 1.62511 0
641 1 Si 10.9512 23.8057 1.61618 0
642 1 Si 0.0869292 48.91 1.60735 0
643 1 Si 36.539 23.5739 1.60075 0
644 1 Si 31.0358 24.6508 1.64575 0
645 1 Si 34.0523 25.3257 1.63113 0
646 1 Si 39.1099 25.3022 1.6016 0
647 1 Si 101.505 49.4437 1.61929 0
648 1 Si 98.7836 47.4284 1.63059 0
649 1 Si 113.94 51.1426 1.62904 0
650 1 Si 57.0419 24.216 1.59923 0
651 1 Si 48.7166 26.3883 1.63708 0
652 1 Si 51.0078 28.4607 1.60221 0
653 1 Si 53.9893 29.2455 1.63328 0
654 1 Si 56.5647 27.5267 1.61987 0
655 1 Si 123.458 51.5769 1.61497 0
656 1 Si 120.353 51.911 1.62367 0
657 1 Si 60.3068 24.7663 1.60654 0
658 1 Si 143.807 49.9945 1.63294 0
659 1 Si 75.0737 24.553 1.62844 0
660 1 Si 72.3208 26.2188 1.61661 0
661 1 Si 78.2777 24.539 1.62095 0
662 1 Si 157.996 49.6121 1.61763 0
663 1 Si 85.4453 26.0975 1.63461 0
664 1 Si 79.4743 27.4057 1.62675 0
665 1 Si 82.7023 27.6695 1.62828 0
666 1 Si 159.392 52.6431 1.62651 0
667 1 Si 162.974 52.0899 1.62301 0
668 1 Si 88.5231 27.0674 1.61846 0
669 1 Si 98.3793 26.6042 1.62179 0
670 1 Si 95.2174 26.8885 1.62503 0
671 1 Si 9.52041 26.609 1.62849 0
672 1 Si 16.1998 27.454 1.61224 0
673 1 Si 19.3343 28.0184 1.62309 0
674 1 Si 1.33396 51.8252 1.63316 0
675 1 Si 4.52386 51.9592 1.64157 0
676 1 Si 6.41833 49.4381 1.62359 0
677 1 Si 24.8012 28.5318 1.61283 0
678 1 Si 30.2189 27.5894 1.62666 0
679 1 Si 27.7915 29.4554 1.63459 0
680 1 Si 107.299 54.4485 1.63113 0
681 1 Si 104.412 55.9386 1.61955 0
682 1 Si 101.524 54.655 1.61204 0
683 1 Si 99.6714 52.049 1.63303 0
684 1 Si 114.038 55.1253 1.63741 0
685 1 Si 108.929 57.328 1.60941 0
686 1 Si 112.005 58.1288 1.63097 0
687 1 Si 124.751 54.4025 1.64043 0
688 1 Si 127.885 54.4069 1.61182 0
689 1 Si 43.3912 27.8754 1.62137 0
690 1 Si 46.2983 29.1141 1.6315 0
691 1 Si 136.902 53.1682 1.61874 0
692 1 Si 133.772 54.1186 1.61734 0
693 1 Si 151.225 54.0854 1.63162 0
694 1 Si 144.919 53.1204 1.62091 0
695 1 Si 147.831 54.9729 1.63145 0
696 1 Si 66.6826 28.357 1.62074 0
697 1 Si 61.0727 28.1732 1.6434 0
698 1 Si 63.8583 30.0227 1.6343 0
699 1 Si 69.9858 28.5078 1.62341 0
700 1 Si 157.262 55.626 1.63656 0
701 1 Si 153.796 56.6421 1.6325 0
702 1 Si 164.671 54.8326 1.62603 0
703 1 Si 170.926 55.2707 1.6314 0
704 1 Si 167.746 56.0439 1.63429 0
705 1 Si 14.1492 29.9794 1.63827 0
706 1 Si 11.0826 29.3163 1.61841 0
707 1 Si 199.327 52.2167 1.62129 0
708 1 Si 19.7449 31.2656 1.62721 0
709 1 Si 22.9397 31.3987 1.62115 0
710 1 Si 35.2241 28.2392 1.6164 0
711 1 Si 32.5594 29.6493 1.6345 0
712 1 Si 38.3084 28.3353 1.62294 0
713 1 Si 40.6926 30.3112 1.62726 0
714 1 Si 119.56 54.8878 1.61914 0
715 1 Si 116.947 56.642 1.62914 0
716 1 Si 50.5308 31.5576 1.60892 0
717 1 Si 53.521 32.4201 1.60229 0
718 1 Si 122.328 56.4132 1.60956 0
719 1 Si 58.5251 30.1921 1.62407 0
720 1 Si 142.29 55.0061 1.59733 0
721 1 Si 139.109 55.4298 1.6251 0
722 1 Si 71.2716 31.3138 1.62955 0
723 1 Si 77.3904 29.8689 1.63789 0
724 1 Si 74.5031 31.2283 1.61799 0
725 1 Si 146.645 58.1353 1.61541 0
726 1 Si 143.455 57.9356 1.60342 0
727 1 Si 88.9624 30.2994 1.62397 0
728 1 Si 82.74 30.7368 1.603 0
729 1 Si 84.2948 33.4263 1.63775 0
730 1 Si 87.369 33.1586 1.62057 0
731 1 Si 159.437 58.0565 1.62922 0
732 1 Si 162.437 57.1028 1.61894 0
733 1 Si 94.6552 30.156 1.63402 0
734 1 Si 91.8208 31.6466 1.6277 0
735 1 Si 173.564 57.7377 1.65012 0
736 1 Si 14.549 33.2514 1.63123 0
737 1 Si 17.672 33.9576 1.62167 0
738 1 Si 28.6785 32.4666 1.62302 0
739 1 Si 31.8002 32.6071 1.61665 0
740 1 Si 201.212 54.9128 1.63391 0
741 1 Si 204.514 54.729 1.62478 0
742 1 Si 104.373 59.1772 1.62344 0
743 1 Si 107.349 60.2338 1.61854 0
744 1 Si 45.4148 32.476 1.6258 0
745 1 Si 48.3164 33.8127 1.62326 0
746 1 Si 118.038 59.7097 1.62563 0
747 1 Si 111.461 61.7762 1.61819 0
748 1 Si 116.653 62.689 1.60826 0
749 1 Si 113.728 64.1829 1.62056 0
750 1 Si 132.431 57.1721 1.64417 0
751 1 Si 129.019 57.5546 1.62343 0
752 1 Si 63.7922 33.3851 1.61944 0
753 1 Si 58.4872 33.5181 1.63623 0
754 1 Si 61.1582 35.2655 1.63331 0
755 1 Si 138.095 58.501 1.60554 0
756 1 Si 134.947 59.3914 1.63053 0
757 1 Si 69.2407 33.8643 1.59852 0
758 1 Si 66.3511 35.3729 1.65302 0
759 1 Si 79.8275 31.7553 1.62289 0
760 1 Si 153 60.1554 1.6326 0
761 1 Si 147.057 61.4881 1.62707 0
762 1 Si 150.22 62.0886 1.63129 0
763 1 Si 159.884 61.2743 1.64409 0
764 1 Si 155.097 62.7187 1.62525 0
765 1 Si 158.166 63.9402 1.6216 0
766 1 Si 97.0361 32.3922 1.6248 0
767 1 Si 167.293 59.1526 1.6434 0
768 1 Si 164.227 59.5632 1.62535 0
769 1 Si 174.249 61.1956 1.63892 0
770 1 Si 168.611 61.982 1.62187 0
771 1 Si 171.63 63.2486 1.62465 0
772 1 Si 185.176 60.0064 1.62554 0
773 1 Si 181.873 59.7373 1.62682 0
774 1 Si 190.679 60.6286 1.60969 0
775 1 Si 187.739 62.0781 1.64394 0
776 1 Si 196.247 58.3994 1.6353 0
777 1 Si 199.658 57.8835 1.6247 0
778 1 Si 26.6856 34.8755 1.64286 0
779 1 Si 23.5194 34.6532 1.63733 0
780 1 Si 39.4397 33.5836 1.6121 0
781 1 Si 33.3961 35.2423 1.63115 0
782 1 Si 36.5843 35.7078 1.62845 0
783 1 Si 1.88423 57.3685 1.62616 0
784 1 Si 5.13833 57.5285 1.62533 0
785 1 Si 6.2818 54.5987 1.62223 0
786 1 Si 42.6317 34.4333 1.61822 0
787 1 Si 101.637 60.8174 1.64485 0
788 1 Si 99.0018 56.467 1.62226 0
789 1 Si 98.75 59.4768 1.62704 0
790 1 Si 53.6059 35.7467 1.62227 0
791 1 Si 56.6734 36.2596 1.62937 0
792 1 Si 121.29 59.3884 1.63103 0
793 1 Si 123.459 61.697 1.62153 0
794 1 Si 126.684 60.234 1.62367 0
795 1 Si 74.4826 34.3629 1.62227 0
796 1 Si 71.7192 35.768 1.63293 0
797 1 Si 140.974 59.9851 1.6339 0
798 1 Si 79.7792 34.8027 1.62623 0
799 1 Si 77.0279 36.1863 1.63379 0
800 1 Si 141.622 63.1058 1.60824 0
801 1 Si 144.72 64.086 1.60902 0
802 1 Si 82.6139 36.1089 1.62214 0
803 1 Si 91.4389 34.8481 1.62668 0
804 1 Si 88.5667 36.1818 1.61576 0
805 1 Si 162.861 62.3208 1.58832 0
806 1 Si 96.5435 35.5337 1.64184 0
807 1 Si 93.7447 36.9844 1.63797 0
808 1 Si 12.1302 35.4558 1.61526 0
809 1 Si 180.704 62.6089 1.61769 0
810 1 Si 177.334 62.8115 1.61553 0
811 1 Si 183.642 64.4446 1.6249 0
812 1 Si 178.619 65.7617 1.63456 0
813 1 Si 181.683 66.8058 1.62796 0
814 1 Si 31.1396 37.54 1.62567 0
815 1 Si 27.9699 37.7176 1.63868 0
816 1 Si 193.97 61.0005 1.63069 0
817 1 Si 42.8061 37.6196 1.63067 0
818 1 Si 35.6364 38.9343 1.62483 0
819 1 Si 40.6443 40.0258 1.60215 0
820 1 Si 37.6842 41.3418 1.62546 0
821 1 Si 202.023 60.169 1.62414 0
822 1 Si 0.690159 60.3218 1.63293 0
823 1 Si 48.6051 37.0265 1.63719 0
824 1 Si 45.8356 38.6689 1.61761 0
825 1 Si 108.398 63.3716 1.62011 0
826 1 Si 106.483 66.5329 1.64676 0
827 1 Si 102.997 66.5576 1.63587 0
828 1 Si 101.068 63.8959 1.6314 0
829 1 Si 51.5276 38.4072 1.61677 0
830 1 Si 60.7427 38.525 1.60621 0
831 1 Si 57.6961 39.3417 1.60642 0
832 1 Si 121.735 64.6845 1.61861 0
833 1 Si 118.541 65.3059 1.61402 0
834 1 Si 66.1761 38.6834 1.61334 0
835 1 Si 61.6279 41.7199 1.62098 0
836 1 Si 64.7464 41.6698 1.63315 0
837 1 Si 134.511 62.5803 1.64139 0
838 1 Si 128.141 62.9787 1.6421 0
839 1 Si 131.346 62.6862 1.64783 0
840 1 Si 71.7608 38.8951 1.63151 0
841 1 Si 68.9346 40.1788 1.63591 0
842 1 Si 139.567 65.6109 1.60697 0
843 1 Si 136.407 65.2707 1.63853 0
844 1 Si 153.6 65.4695 1.61748 0
845 1 Si 150.495 65.2675 1.61224 0
846 1 Si 165.777 63.5268 1.6359 0
847 1 Si 11.1886 38.5576 1.6403 0
848 1 Si 165.695 66.6126 1.6076 0
849 1 Si 171.664 66.6047 1.62452 0
850 1 Si 168.668 67.9237 1.60468 0
851 1 Si 18.3388 37.2148 1.6259 0
852 1 Si 21.6054 37.3684 1.63802 0
853 1 Si 186.997 65.2038 1.64503 0
854 1 Si 32.6275 40.2708 1.62458 0
855 1 Si 194.68 64.1871 1.62728 0
856 1 Si 197.892 64.2289 1.59738 0
857 1 Si 200.784 62.9996 1.62759 0
858 1 Si 42.3159 42.7233 1.63137 0
859 1 Si 45.4107 41.8372 1.6239 0
860 1 Si 125.903 65.3406 1.64346 0