ITEM: TIMESTEP
1253
ITEM: NUMBER OF ATOMS
15888
ITEM: BOX BOUNDS pp pp pp
0.0000000000000000e+00 2.0675995333459753e+02
0.0000000000000000e+00 1.7869469957701659e+02
-1.0000000000000000e+02 1.0000000000000000e+02
ITEM: ATOMS id type element x y z v_uncoordination
1 1 Si 133.709 163.783 1.62274 0
2 1 Si 137.005 165.01 1.62891 0
3 1 Si 135.26 158.365 1.62327 0
4 1 Si 138.555 159.498 1.61504 0
5 1 Si 132.894 160.596 1.6128 0
6 1 Si 139.833 162.797 1.62259 0
7 1 Si 133.736 170.028 1.62606 0
8 1 Si 136.986 168.47 1.62408 0
9 1 Si 130.517 168.667 1.62623 0
10 1 Si 130.674 165.282 1.62677 0
11 1 Si 133.722 173.353 1.63098 0
12 1 Si 139.954 170.369 1.62912 0
13 1 Si 139.471 173.619 1.62485 0
14 1 Si 136.597 174.789 1.62455 0
15 1 Si 127.439 170.331 1.64067 0
16 1 Si 124.503 168.956 1.63565 0
17 1 Si 124.874 163.098 1.61182 0
18 1 Si 128.156 163.051 1.62194 0
19 1 Si 123.592 165.916 1.63995 0
20 1 Si 126.507 173.524 1.62369 0
21 1 Si 120.933 173.85 1.60435 0
22 1 Si 123.703 175.182 1.62379 0
23 1 Si 122.02 170.91 1.60188 0
24 1 Si 131.466 175.757 1.63469 0
25 1 Si 128.304 176.17 1.63558 0
26 1 Si 172.703 169.233 1.62922 0
27 1 Si 174.358 166.503 1.63627 0
28 1 Si 169.4 169.195 1.6428 0
29 1 Si 169.91 162.32 1.62888 0
30 1 Si 167.105 163.797 1.61108 0
31 1 Si 172.889 163.601 1.61007 0
32 1 Si 166.944 167.038 1.61781 0
33 1 Si 174.705 171.847 1.62472 0
34 1 Si 177.622 166.725 1.63662 0
35 1 Si 179.494 169.401 1.63635 0
36 1 Si 177.941 172.265 1.64279 0
37 1 Si 168.195 172.11 1.63448 0
38 1 Si 170.207 174.51 1.62632 0
39 1 Si 173.298 174.647 1.63118 0
40 1 Si 195.8 175.402 1.61902 0
41 1 Si 198.59 173.443 1.62874 0
42 1 Si 192.851 173.956 1.61626 0
43 1 Si 195.314 168.958 1.61182 0
44 1 Si 198.277 170.102 1.61234 0
45 1 Si 192.792 170.779 1.6181 0
46 1 Si 196.114 178.673 1.62491 0
47 1 Si 199.176 1.33942 1.62323 0
48 1 Si 201.864 178.115 1.63927 0
49 1 Si 201.66 174.762 1.62789 0
50 1 Si 190.395 2.31375 1.62944 0
51 1 Si 187.562 0.907071 1.62161 0
52 1 Si 193.602 2.0376 1.62027 0
53 1 Si 189.662 174.225 1.63109 0
54 1 Si 187.455 176.422 1.61211 0
55 1 Si 135.601 28.1966 1.63183 0
56 1 Si 134.683 25.0897 1.63259 0
57 1 Si 133.492 30.7389 1.6354 0
58 1 Si 131.484 24.4906 1.62883 0
59 1 Si 129.196 26.8219 1.6222 0
60 1 Si 130.403 29.846 1.62517 0
61 1 Si 138.853 28.5034 1.63695 0
62 1 Si 136.861 22.6112 1.64601 0
63 1 Si 140.057 23.0055 1.64595 0
64 1 Si 141.107 26.0682 1.63137 0
65 1 Si 139.79 31.5667 1.6417 0
66 1 Si 134.538 33.8092 1.59997 0
67 1 Si 137.669 33.9667 1.62052 0
68 1 Si 109.302 3.08488 1.60611 0
69 1 Si 112.372 2.97993 1.62358 0
70 1 Si 108.324 5.99692 1.62895 0
71 1 Si 113.985 5.53996 1.6315 0
72 1 Si 111.275 7.21026 1.62868 0
73 1 Si 108.346 0.149933 1.62679 0
74 1 Si 113.647 0.253408 1.61962 0
75 1 Si 111.049 177.233 1.6201 0
76 1 Si 105.177 6.42397 1.61713 0
77 1 Si 102.482 4.57295 1.62496 0
78 1 Si 102.56 1.38375 1.61835 0
79 1 Si 105.267 178.254 1.61293 0
80 1 Si 118.599 2.29399 1.6434 0
81 1 Si 117.088 5.09735 1.64202 0
82 1 Si 116.707 178.495 1.59867 0
83 1 Si 121.743 2.24387 1.62146 0
84 1 Si 123.54 4.91534 1.61185 0
85 1 Si 118.572 7.81399 1.62826 0
86 1 Si 121.903 7.77626 1.62089 0
87 1 Si 123.541 178.333 1.60069 0
88 1 Si 117.824 174.02 1.61749 0
89 1 Si 115.228 175.654 1.62418 0
90 1 Si 126.536 3.58568 1.63269 0
91 1 Si 126.633 0.294095 1.61027 0
92 1 Si 131.564 3.20272 1.62357 0
93 1 Si 129.186 5.42958 1.61664 0
94 1 Si 134.559 4.17311 1.6255 0
95 1 Si 135.815 7.09066 1.63214 0
96 1 Si 129.592 8.87588 1.6167 0
97 1 Si 133.199 9.55014 1.62766 0
98 1 Si 132.295 0.109528 1.62218 0
99 1 Si 135.194 1.16528 1.62014 0
100 1 Si 141.266 3.85667 1.63223 0
101 1 Si 139.293 6.64266 1.62195 0
102 1 Si 140.198 0.780818 1.61987 0
103 1 Si 137.461 177.867 1.61427 0
104 1 Si 144.585 4.30835 1.6083 0
105 1 Si 144.651 7.62693 1.61349 0
106 1 Si 141.565 9.02473 1.61705 0
107 1 Si 147.42 2.34071 1.62771 0
108 1 Si 146.772 177.832 1.60433 0
109 1 Si 141.168 176.409 1.62636 0
110 1 Si 144.201 175.956 1.60426 0
111 1 Si 150.655 3.70191 1.62164 0
112 1 Si 150.528 7.21159 1.61821 0
113 1 Si 147.669 9.02093 1.63125 0
114 1 Si 153.951 2.33103 1.63074 0
115 1 Si 156.475 4.67843 1.63188 0
116 1 Si 153.19 9.4717 1.62769 0
117 1 Si 156.112 8.03646 1.63427 0
118 1 Si 155.028 177.692 1.63336 0
119 1 Si 150.247 173.432 1.62725 0
120 1 Si 147.5 174.757 1.63023 0
121 1 Si 152.979 175.183 1.61164 0
122 1 Si 159.65 3.69972 1.6181 0
123 1 Si 159.895 0.382511 1.61204 0
124 1 Si 158.213 176.258 1.61314 0
125 1 Si 164.985 1.7332 1.63248 0
126 1 Si 162.818 178.229 1.63754 0
127 1 Si 165.493 4.78152 1.63725 0
128 1 Si 162.319 5.77691 1.61779 0
129 1 Si 166.674 177.906 1.61937 0
130 1 Si 164.535 175.7 1.61454 0
131 1 Si 171.634 4.10379 1.62277 0
132 1 Si 171.942 0.966904 1.6248 0
133 1 Si 168.694 5.5963 1.61249 0
134 1 Si 169.644 177.574 1.6087 0
135 1 Si 178.987 2.39109 1.62272 0
136 1 Si 182.019 1.16457 1.60592 0
137 1 Si 177.631 5.49129 1.64004 0
138 1 Si 184.442 5.91573 1.64842 0
139 1 Si 184.806 2.71775 1.62427 0
140 1 Si 179.314 8.40053 1.61688 0
141 1 Si 182.515 8.40594 1.65964 0
142 1 Si 177.472 178.182 1.61352 0
143 1 Si 179.118 175.358 1.61763 0
144 1 Si 182.074 176.6 1.61254 0
145 1 Si 174.32 5.97428 1.6141 0
146 1 Si 174.378 177.654 1.62125 0
147 1 Si 189.594 5.31981 1.61432 0
148 1 Si 187.227 7.1975 1.63724 0
149 1 Si 194.526 5.09179 1.62587 0
150 1 Si 192.142 7.01589 1.63443 0
151 1 Si 197.189 6.77332 1.63494 0
152 1 Si 197.139 10.0895 1.63347 0
153 1 Si 191.979 10.0731 1.62311 0
154 1 Si 194.452 11.9251 1.63854 0
155 1 Si 199.621 4.6549 1.6337 0
156 1 Si 202.384 6.4114 1.64227 0
157 1 Si 202.45 9.79777 1.6485 0
158 1 Si 199.804 11.9155 1.62796 0
159 1 Si 204.99 4.41972 1.64368 0
160 1 Si 204.717 1.08747 1.64603 0
161 1 Si 1.10241 5.99737 1.64403 0
162 1 Si 1.37624 9.30444 1.64858 0
163 1 Si 205.393 11.268 1.65341 0
164 1 Si 3.69134 4.04894 1.63925 0
165 1 Si 3.44761 0.822801 1.63781 0
166 1 Si 0.637164 177.91 1.65028 0
167 1 Si 112.246 10.1234 1.62497 0
168 1 Si 109.561 12.1452 1.62891 0
169 1 Si 106.224 12.0256 1.64913 0
170 1 Si 104.265 9.44023 1.61954 0
171 1 Si 115.627 9.51032 1.62742 0
172 1 Si 123.06 10.8252 1.61004 0
173 1 Si 126.443 11.4596 1.6333 0
174 1 Si 134.358 12.769 1.65467 0
175 1 Si 140.531 12.1718 1.63644 0
176 1 Si 137.55 13.6122 1.62869 0
177 1 Si 147.983 12.3595 1.61289 0
178 1 Si 153.711 13.0176 1.62103 0
179 1 Si 150.691 14.2802 1.6224 0
180 1 Si 161.631 8.90374 1.62235 0
181 1 Si 158.646 10.1765 1.59905 0
182 1 Si 169.646 8.66027 1.61481 0
183 1 Si 167.212 10.7512 1.63372 0
184 1 Si 163.995 10.9832 1.61606 0
185 1 Si 172.931 8.93465 1.63229 0
186 1 Si 174.784 11.6675 1.64176 0
187 1 Si 178.06 11.4969 1.633 0
188 1 Si 188.914 9.80172 1.63143 0
189 1 Si 184.124 11.1448 1.63488 0
190 1 Si 187.097 12.1753 1.61727 0
191 1 Si 4.49325 10.4925 1.64095 0
192 1 Si 6.76124 5.05732 1.61992 0
193 1 Si 7.23764 8.41 1.6432 0
194 1 Si 116.978 12.264 1.6223 0
195 1 Si 111.316 14.8045 1.64218 0
196 1 Si 114.391 14.177 1.61731 0
197 1 Si 120.232 12.5861 1.63931 0
198 1 Si 126.593 14.8255 1.64653 0
199 1 Si 129.416 16.2526 1.62464 0
200 1 Si 132.498 15.5466 1.62805 0
201 1 Si 142.635 14.6174 1.62026 0
202 1 Si 145.79 14.7429 1.63443 0
203 1 Si 159.29 13.3926 1.6186 0
204 1 Si 156.711 15.3288 1.62728 0
205 1 Si 167.824 13.785 1.62779 0
206 1 Si 162.475 13.7984 1.60601 0
207 1 Si 165.113 15.4791 1.63912 0
208 1 Si 170.551 15.2824 1.62475 0
209 1 Si 173.713 14.7625 1.61839 0
210 1 Si 183.046 14.0645 1.62909 0
211 1 Si 179.871 14.3248 1.62821 0
212 1 Si 188.281 15.0429 1.61803 0
213 1 Si 185.38 16.2599 1.63515 0
214 1 Si 199.407 15.3781 1.62448 0
215 1 Si 193.867 15.082 1.60624 0
216 1 Si 196.321 17.1637 1.59805 0
217 1 Si 205.295 14.6294 1.62977 0
218 1 Si 202.49 16.7172 1.62614 0
219 1 Si 110.903 17.9749 1.62192 0
220 1 Si 108.146 19.294 1.63274 0
221 1 Si 105.514 17.557 1.61371 0
222 1 Si 104.279 14.6343 1.63405 0
223 1 Si 116.508 16.3515 1.61909 0
224 1 Si 119.512 15.59 1.61325 0
225 1 Si 124.7 17.5541 1.58463 0
226 1 Si 128.824 19.3992 1.62396 0
227 1 Si 125.945 20.5247 1.60559 0
228 1 Si 138.038 16.8111 1.62984 0
229 1 Si 133.203 18.7311 1.6167 0
230 1 Si 136.212 19.4414 1.6335 0
231 1 Si 141.094 17.4061 1.63362 0
232 1 Si 146.916 17.7847 1.63145 0
233 1 Si 150.121 17.5455 1.61596 0
234 1 Si 165.843 18.49 1.62414 0
235 1 Si 168.977 18.0273 1.61827 0
236 1 Si 175.781 17.3832 1.61847 0
237 1 Si 179.125 17.5408 1.61432 0
238 1 Si 191.011 16.5611 1.62933 0
239 1 Si 1.69629 15.6908 1.62886 0
240 1 Si 4.53841 13.846 1.64019 0
241 1 Si 115.697 19.2784 1.63483 0
242 1 Si 112.875 20.4696 1.62137 0
243 1 Si 119.9 18.6486 1.64075 0
244 1 Si 122.563 20.044 1.63036 0
245 1 Si 131.249 21.3033 1.61813 0
246 1 Si 142.052 20.4291 1.63258 0
247 1 Si 145.258 20.5987 1.62637 0
248 1 Si 157.835 18.7243 1.6168 0
249 1 Si 151.704 20.4413 1.63643 0
250 1 Si 155.05 20.5387 1.6076 0
251 1 Si 160.756 20.9859 1.62117 0
252 1 Si 164.231 21.2715 1.63134 0
253 1 Si 171.062 20.2767 1.61788 0
254 1 Si 174.229 20.1416 1.62746 0
255 1 Si 184.947 19.3896 1.62557 0
256 1 Si 181.642 19.9346 1.62987 0
257 1 Si 190.772 19.7727 1.61087 0
258 1 Si 187.718 21.3012 1.63809 0
259 1 Si 202.856 20.0421 1.61865 0
260 1 Si 194.141 19.8589 1.6179 0
261 1 Si 195.016 22.8998 1.62295 0
262 1 Si 201.364 23.0079 1.6319 0
263 1 Si 198.149 23.7388 1.60731 0
264 1 Si 205.992 20.7648 1.62148 0
265 1 Si 1.8297 18.9173 1.63351 0
266 1 Si 108.37 22.4782 1.61125 0
267 1 Si 105.317 22.7049 1.64349 0
268 1 Si 103.676 20.0777 1.62504 0
269 1 Si 118.058 21.1973 1.58391 0
270 1 Si 121.465 23.2155 1.62232 0
271 1 Si 124.612 23.4505 1.64609 0
272 1 Si 146.481 23.66 1.6286 0
273 1 Si 149.807 23.2836 1.62642 0
274 1 Si 156.436 23.4329 1.61157 0
275 1 Si 159.604 24.0678 1.6186 0
276 1 Si 169.836 23.1477 1.6281 0
277 1 Si 166.626 23.7992 1.63 0
278 1 Si 175.31 23.1287 1.63022 0
279 1 Si 172.567 24.8556 1.63704 0
280 1 Si 8.29432 2.05774 1.62822 0
281 1 Si 6.31829 178.066 1.61502 0
282 1 Si 13.6648 4.25677 1.61831 0
283 1 Si 11.5322 1.60435 1.61657 0
284 1 Si 13.3851 7.74901 1.63201 0
285 1 Si 10.3881 9.70102 1.62576 0
286 1 Si 110.437 24.9196 1.64549 0
287 1 Si 113.242 23.6021 1.62373 0
288 1 Si 16.5446 2.55005 1.61078 0
289 1 Si 16.1022 177.966 1.61652 0
290 1 Si 12.8952 177.153 1.62018 0
291 1 Si 19.7035 3.57358 1.62681 0
292 1 Si 19.3256 7.0012 1.61666 0
293 1 Si 16.4894 9.27501 1.62042 0
294 1 Si 116.362 23.8721 1.61754 0
295 1 Si 118.933 25.5971 1.64268 0
296 1 Si 22.5278 1.407 1.63286 0
297 1 Si 18.7389 175.926 1.63059 0
298 1 Si 22.0646 176.809 1.62062 0
299 1 Si 24.9992 5.58508 1.62757 0
300 1 Si 27.5381 7.42237 1.64223 0
301 1 Si 22.4693 7.80046 1.63234 0
302 1 Si 26.4176 10.4468 1.63544 0
303 1 Si 23.2408 10.9922 1.61367 0
304 1 Si 125.939 26.3669 1.64046 0
305 1 Si 25.7755 2.3405 1.63936 0
306 1 Si 31.5711 3.0003 1.62515 0
307 1 Si 30.5445 6.20559 1.63969 0
308 1 Si 29.008 0.818907 1.64487 0
309 1 Si 34.9091 2.29287 1.62827 0
310 1 Si 36.7182 5.03259 1.62116 0
311 1 Si 32.3574 8.90534 1.63564 0
312 1 Si 35.4408 8.08038 1.62565 0
313 1 Si 36.8562 178.188 1.62214 0
314 1 Si 32.8242 174.113 1.61916 0
315 1 Si 35.948 175.009 1.61304 0
316 1 Si 30.0526 176.178 1.62917 0
317 1 Si 42.7884 3.48527 1.63844 0
318 1 Si 43.4125 0.490982 1.62425 0
319 1 Si 39.8939 4.76618 1.63654 0
320 1 Si 40.2462 177.917 1.60249 0
321 1 Si 144.412 26.4263 1.64257 0
322 1 Si 154.601 25.9282 1.6199 0
323 1 Si 151.432 26.048 1.63218 0
324 1 Si 45.5378 5.01776 1.63004 0
325 1 Si 48.5624 5.46966 1.64148 0
326 1 Si 44.3143 7.7707 1.61641 0
327 1 Si 48.8721 8.74033 1.62706 0
328 1 Si 44.7599 10.7845 1.63243 0
329 1 Si 47.5982 11.8032 1.61552 0
330 1 Si 49.6827 2.49014 1.6199 0
331 1 Si 46.8858 0.563375 1.62385 0
332 1 Si 41.2779 7.48494 1.62778 0
333 1 Si 160.75 27.2138 1.64015 0
334 1 Si 166.626 27.1564 1.6295 0
335 1 Si 163.678 28.6074 1.64187 0
336 1 Si 53.3221 6.04794 1.61821 0
337 1 Si 52.9693 2.67393 1.63535 0
338 1 Si 51.9067 9.13829 1.62143 0
339 1 Si 58.7448 5.83904 1.61884 0
340 1 Si 55.9769 7.67442 1.63165 0
341 1 Si 60.755 8.23662 1.64459 0
342 1 Si 54.8448 10.8396 1.62617 0
343 1 Si 59.6397 11.1859 1.60814 0
344 1 Si 57.0199 13.0509 1.62806 0
345 1 Si 60.3758 2.94253 1.64209 0
346 1 Si 55.1526 0.020572 1.63124 0
347 1 Si 58.5534 0.208972 1.63058 0
348 1 Si 181.253 23.1675 1.62298 0
349 1 Si 178.246 24.4364 1.62394 0
350 1 Si 65.7815 5.2671 1.63798 0
351 1 Si 63.8913 7.78526 1.63355 0
352 1 Si 63.7744 2.73828 1.63622 0
353 1 Si 69.075 5.53395 1.63972 0
354 1 Si 70.7643 8.30452 1.62843 0
355 1 Si 65.3396 10.5232 1.61968 0
356 1 Si 68.473 10.5239 1.63444 0
357 1 Si 70.9919 2.96448 1.64284 0
358 1 Si 65.8606 0.208528 1.64116 0
359 1 Si 69.2448 0.198401 1.63807 0
360 1 Si 187.066 24.6067 1.64683 0
361 1 Si 183.73 25.3422 1.60971 0
362 1 Si 75.8235 6.2509 1.62019 0
363 1 Si 74.0652 8.95405 1.63888 0
364 1 Si 74.2359 3.37657 1.62213 0
365 1 Si 79.0674 6.10784 1.62536 0
366 1 Si 81.0809 9.04687 1.61313 0
367 1 Si 75.6502 11.9336 1.62628 0
368 1 Si 78.3904 14.0363 1.62609 0
369 1 Si 81.3543 12.7725 1.6307 0
370 1 Si 79.1502 2.67013 1.62244 0
371 1 Si 76.2733 0.861831 1.61651 0
372 1 Si 192.881 25.4651 1.61897 0
373 1 Si 189.652 26.8418 1.63609 0
374 1 Si 84.114 7.90056 1.61055 0
375 1 Si 84.1627 4.39388 1.62185 0
376 1 Si 82.1305 1.39326 1.6268 0
377 1 Si 92.0223 2.7171 1.63244 0
378 1 Si 95.2009 2.75799 1.64465 0
379 1 Si 89.9791 5.16991 1.61941 0
380 1 Si 96.452 5.81717 1.63611 0
381 1 Si 91.1771 8.19176 1.64074 0
382 1 Si 94.4804 8.52406 1.62433 0
383 1 Si 90.4032 0.011305 1.62766 0
384 1 Si 96.5652 178.438 1.63477 0
385 1 Si 91.2889 175.676 1.61711 0
386 1 Si 94.6412 175.632 1.63772 0
387 1 Si 87.1931 3.50007 1.63671 0
388 1 Si 87.3043 0.303493 1.63084 0
389 1 Si 203.779 25.3081 1.63094 0
390 1 Si 206.701 23.855 1.61374 0
391 1 Si 99.7076 6.27348 1.61815 0
392 1 Si 99.8726 178.249 1.6202 0
393 1 Si 109.732 28.0038 1.62381 0
394 1 Si 106.512 27.9015 1.62092 0
395 1 Si 104.344 25.591 1.63023 0
396 1 Si 101.04 9.21237 1.62293 0
397 1 Si 104.655 175.147 1.61752 0
398 1 Si 101.453 175.463 1.61715 0
399 1 Si 117.679 28.8125 1.61015 0
400 1 Si 123.7 28.6672 1.60621 0
401 1 Si 120.691 29.8917 1.61843 0
402 1 Si 28.3497 12.9656 1.62738 0
403 1 Si 31.4413 12.1243 1.62579 0
404 1 Si 40.0472 10.2808 1.63426 0
405 1 Si 37.0418 10.8711 1.62202 0
406 1 Si 42.1966 12.4668 1.62769 0
407 1 Si 52.0418 12.5203 1.60937 0
408 1 Si 155.867 28.7785 1.62446 0
409 1 Si 158.772 29.8257 1.63184 0
410 1 Si 172.528 28.0764 1.64946 0
411 1 Si 169.382 29.1998 1.62676 0
412 1 Si 62.6488 12.1196 1.61312 0
413 1 Si 178.33 27.6285 1.60788 0
414 1 Si 175.577 29.4843 1.62991 0
415 1 Si 69.8923 13.2153 1.6257 0
416 1 Si 72.9968 13.5665 1.61959 0
417 1 Si 196.048 26.1651 1.61494 0
418 1 Si 86.0247 10.6571 1.61864 0
419 1 Si 89.2084 10.7412 1.61326 0
420 1 Si 196.877 29.1376 1.62542 0
421 1 Si 203.403 28.5615 1.65125 0
422 1 Si 200.188 29.6514 1.6188 0
423 1 Si 95.9073 11.528 1.64418 0
424 1 Si 99.209 11.8055 1.63061 0
425 1 Si 3.2626 23.8061 1.63607 0
426 1 Si 4.56639 20.6596 1.61472 0
427 1 Si 111.629 30.6834 1.64568 0
428 1 Si 114.983 31.1827 1.62423 0
429 1 Si 10.2973 13.1736 1.64105 0
430 1 Si 7.5376 15.3171 1.64287 0
431 1 Si 16.2269 12.8556 1.63611 0
432 1 Si 13.2603 14.7003 1.63892 0
433 1 Si 22.1675 14.1549 1.63165 0
434 1 Si 18.9475 14.9208 1.63922 0
435 1 Si 24.3286 16.8171 1.62122 0
436 1 Si 27.5008 16.1391 1.62256 0
437 1 Si 150.722 29.1536 1.62783 0
438 1 Si 145.143 29.6924 1.62523 0
439 1 Si 148.117 30.973 1.62985 0
440 1 Si 36.4593 14.0379 1.64117 0
441 1 Si 33.3722 14.8201 1.63736 0
442 1 Si 153.473 30.7213 1.61984 0
443 1 Si 181.624 27.8942 1.62203 0
444 1 Si 47.3658 15.0743 1.61633 0
445 1 Si 50.5247 15.6186 1.65228 0
446 1 Si 62.2098 15.1065 1.6235 0
447 1 Si 59.5628 16.7365 1.63015 0
448 1 Si 56.52 16.2637 1.63743 0
449 1 Si 188.692 30.249 1.63228 0
450 1 Si 182.444 30.9313 1.61918 0
451 1 Si 185.617 31.8136 1.63613 0
452 1 Si 64.9901 16.4375 1.62556 0
453 1 Si 67.9304 15.6004 1.63232 0
454 1 Si 194.19 31.1684 1.61247 0
455 1 Si 191.094 32.5366 1.65285 0
456 1 Si 206.275 30.4634 1.65152 0
457 1 Si 3.09349 29.6694 1.62274 0
458 1 Si 5.00041 26.6661 1.61766 0
459 1 Si 73.1708 16.5835 1.63308 0
460 1 Si 78.5753 17.4257 1.59373 0
461 1 Si 75.6225 18.3173 1.61931 0
462 1 Si 86.0953 13.8987 1.61387 0
463 1 Si 83.6182 15.8593 1.63051 0
464 1 Si 123.248 31.7143 1.58066 0
465 1 Si 128.397 32.1799 1.60528 0
466 1 Si 125.616 33.4492 1.58703 0
467 1 Si 89.2175 13.9147 1.61527 0
468 1 Si 94.3607 14.4319 1.60864 0
469 1 Si 91.5128 16.0461 1.62399 0
470 1 Si 120.505 33.1014 1.59083 0
471 1 Si 100.998 14.5223 1.64358 0
472 1 Si 142.949 32.1451 1.62242 0
473 1 Si 18.6833 18.2264 1.6174 0
474 1 Si 20.7488 20.8248 1.62539 0
475 1 Si 23.8901 20.2087 1.6229 0
476 1 Si 38.6823 16.3884 1.63073 0
477 1 Si 41.7265 15.5021 1.6244 0
478 1 Si 163.528 31.8765 1.62763 0
479 1 Si 158.686 33.1026 1.63069 0
480 1 Si 161.472 34.4189 1.62001 0
481 1 Si 169.027 32.4981 1.64067 0
482 1 Si 166.037 33.7342 1.62441 0
483 1 Si 60.5613 19.6253 1.63136 0
484 1 Si 63.6086 19.1769 1.62746 0
485 1 Si 176.529 32.6413 1.62494 0
486 1 Si 171.219 34.9076 1.62092 0
487 1 Si 174.469 35.2 1.62797 0
488 1 Si 70.2683 17.5227 1.62613 0
489 1 Si 199.258 32.6808 1.60861 0
490 1 Si 196.232 33.4967 1.61829 0
491 1 Si 109.548 33.2107 1.63141 0
492 1 Si 106.305 33.1005 1.62553 0
493 1 Si 104.64 30.3669 1.62888 0
494 1 Si 205.451 33.6787 1.61717 0
495 1 Si 200.011 35.7738 1.62213 0
496 1 Si 203.113 35.974 1.62228 0
497 1 Si 96.0734 17.141 1.6339 0
498 1 Si 99.2459 17.2213 1.64726 0
499 1 Si 115.557 34.5709 1.63172 0
500 1 Si 118.644 35.6397 1.63446 0
501 1 Si 7.44327 18.7934 1.63926 0
502 1 Si 12.9938 18.1291 1.63057 0
503 1 Si 10.4008 20.3659 1.62679 0
504 1 Si 127.83 35.2423 1.63351 0
505 1 Si 129.813 37.4458 1.58684 0
506 1 Si 132.491 38.8231 1.59572 0
507 1 Si 134.882 37.0173 1.57344 0
508 1 Si 15.8383 19.6533 1.62972 0
509 1 Si 148.657 34.177 1.62675 0
510 1 Si 153.917 33.7598 1.62353 0
511 1 Si 151.437 35.575 1.63333 0
512 1 Si 143.785 35.259 1.63224 0
513 1 Si 146.657 36.6146 1.63107 0
514 1 Si 156.523 35.4749 1.62292 0
515 1 Si 32.9278 18.1061 1.62779 0
516 1 Si 29.7182 18.6205 1.62575 0
517 1 Si 38.241 19.6013 1.62383 0
518 1 Si 35.1779 20.6812 1.62561 0
519 1 Si 44.6248 16.8886 1.62215 0
520 1 Si 179.819 32.9671 1.61828 0
521 1 Si 184.575 34.9171 1.61254 0
522 1 Si 181.457 35.6478 1.63231 0
523 1 Si 54.7106 19.0181 1.63724 0
524 1 Si 51.4667 18.8608 1.6342 0
525 1 Si 59.1481 22.4075 1.62562 0
526 1 Si 55.9836 22.0674 1.63589 0
527 1 Si 190.285 35.8868 1.61137 0
528 1 Si 185.276 38.0684 1.62962 0
529 1 Si 188.323 38.6529 1.61869 0
530 1 Si 64.2514 22.1457 1.63254 0
531 1 Si 69.5456 20.3834 1.6134 0
532 1 Si 67.2051 22.2067 1.62062 0
533 1 Si 1.12772 35.708 1.6378 0
534 1 Si 4.30072 35.3339 1.63061 0
535 1 Si 5.35201 32.2647 1.64196 0
536 1 Si 110.346 36.3104 1.63049 0
537 1 Si 113.462 37.1692 1.63299 0
538 1 Si 79.1313 20.7439 1.63206 0
539 1 Si 84.2491 19.5618 1.60835 0
540 1 Si 81.9887 22.0454 1.61118 0
541 1 Si 124.911 36.4282 1.59107 0
542 1 Si 119.864 38.7608 1.62713 0
543 1 Si 123.209 39.0319 1.65213 0
544 1 Si 91.3956 19.354 1.61046 0
545 1 Si 94.5416 19.9478 1.6318 0
546 1 Si 100.585 20.1076 1.62665 0
547 1 Si 138.691 36.8998 1.62264 0
548 1 Si 141.716 37.5733 1.63328 0
549 1 Si 165.07 36.811 1.62348 0
550 1 Si 161.969 37.6398 1.61445 0
551 1 Si 16.4783 22.8207 1.62493 0
552 1 Si 10.859 23.8363 1.64202 0
553 1 Si 14.0585 24.8554 1.63688 0
554 1 Si 19.5842 23.8758 1.63988 0
555 1 Si 29.1498 21.7873 1.61738 0
556 1 Si 26.0777 22.7809 1.61078 0
557 1 Si 170.184 37.9773 1.62497 0
558 1 Si 167.212 39.1046 1.65244 0
559 1 Si 44.0867 20.0181 1.62057 0
560 1 Si 41.0363 21.2152 1.62713 0
561 1 Si 175.18 38.423 1.61412 0
562 1 Si 172.473 40.1569 1.62911 0
563 1 Si 46.4735 22.1794 1.63497 0
564 1 Si 49.7499 21.8243 1.62665 0
565 1 Si 195.377 36.5393 1.63504 0
566 1 Si 192.605 38.05 1.61417 0
567 1 Si 197.932 38.3127 1.62021 0
568 1 Si 60.7392 25.1853 1.60937 0
569 1 Si 63.7874 25.2144 1.63889 0
570 1 Si 74.8394 21.2573 1.61857 0
571 1 Si 71.9904 22.158 1.62854 0
572 1 Si 107.644 38.1537 1.62133 0
573 1 Si 105.03 36.0993 1.62386 0
574 1 Si 114.247 40.435 1.62383 0
575 1 Si 117.607 41.3005 1.63054 0
576 1 Si 77.0857 23.3344 1.61567 0
577 1 Si 0.00874218 38.6236 1.62825 0
578 1 Si 203.685 39.1219 1.61026 0
579 1 Si 86.4357 22.2009 1.62831 0
580 1 Si 89.7173 22.202 1.6382 0
581 1 Si 96.0799 22.8291 1.63424 0
582 1 Si 99.2783 23.0375 1.64285 0
583 1 Si 128.805 40.3684 1.59791 0
584 1 Si 131.626 41.7604 1.61257 0
585 1 Si 136.956 39.5122 1.5697 0
586 1 Si 147.473 39.769 1.63647 0
587 1 Si 142.21 40.6724 1.62413 0
588 1 Si 145.13 41.9345 1.63467 0
589 1 Si 8.59863 26.5056 1.61621 0
590 1 Si 152.541 38.5067 1.64329 0
591 1 Si 150.513 40.887 1.63843 0
592 1 Si 155.711 38.5757 1.64281 0
593 1 Si 160.69 40.7706 1.64875 0
594 1 Si 157.327 41.4115 1.63872 0
595 1 Si 31.256 24.2509 1.62898 0
596 1 Si 34.4712 23.9951 1.63487 0
597 1 Si 41.3432 24.352 1.62876 0
598 1 Si 44.5127 24.7375 1.59935 0
599 1 Si 180.663 38.7661 1.62367 0
600 1 Si 177.823 40.2543 1.64798 0
601 1 Si 51.2355 24.8205 1.63845 0
602 1 Si 54.5551 24.9932 1.63791 0
603 1 Si 183.249 40.6288 1.62603 0
604 1 Si 191.781 41.2233 1.63004 0
605 1 Si 188.64 42.0168 1.61094 0
606 1 Si 68.0243 25.1222 1.61381 0
607 1 Si 71.0294 25.0119 1.6425 0
608 1 Si 1.89027 41.0532 1.63089 0
609 1 Si 4.98148 40.8325 1.63401 0
610 1 Si 6.25777 37.9654 1.63275 0
611 1 Si 108.097 41.449 1.6296 0
612 1 Si 111.482 42.5106 1.63696 0
613 1 Si 85.3542 25.4035 1.62962 0
614 1 Si 82.1761 25.4836 1.62688 0
615 1 Si 125.701 41.1635 1.6247 0
616 1 Si 91.3308 25.1892 1.64078 0
617 1 Si 94.6069 25.6881 1.65322 0
618 1 Si 139.194 41.7877 1.6314 0
619 1 Si 101.188 25.6507 1.61711 0
620 1 Si 21.0491 26.9833 1.63316 0
621 1 Si 15.566 27.7446 1.6305 0
622 1 Si 18.5857 29.029 1.62814 0
623 1 Si 166.212 42.1407 1.6226 0
624 1 Si 163.062 43.1408 1.62585 0
625 1 Si 26.5222 26.0684 1.63052 0
626 1 Si 24.2209 28.354 1.643 0
627 1 Si 29.6787 27.0299 1.62709 0
628 1 Si 171.805 43.3427 1.65147 0
629 1 Si 168.588 44.3081 1.62064 0
630 1 Si 36.0803 26.9757 1.62944 0
631 1 Si 39.3387 26.876 1.62554 0
632 1 Si 177.61 43.5246 1.62542 0
633 1 Si 174.653 44.9657 1.63009 0
634 1 Si 43.9482 27.8736 1.61835 0
635 1 Si 49.4451 27.5193 1.6098 0
636 1 Si 46.7052 29.1513 1.62633 0
637 1 Si 197.169 41.5068 1.63095 0
638 1 Si 194.295 43.2072 1.61905 0
639 1 Si 56.5166 27.7308 1.64036 0
640 1 Si 59.8668 28.2224 1.61501 0
641 1 Si 202.688 42.1197 1.63271 0
642 1 Si 199.754 43.3133 1.61619 0
643 1 Si 66.0038 27.3413 1.64635 0
644 1 Si 105.22 43.4362 1.62711 0
645 1 Si 101.702 36.4501 1.63799 0
646 1 Si 100.253 39.5731 1.62489 0
647 1 Si 101.725 42.7183 1.6406 0
648 1 Si 72.8935 27.3825 1.61183 0
649 1 Si 75.9484 26.3654 1.64463 0
650 1 Si 118.83 44.5088 1.62444 0
651 1 Si 112.01 45.8452 1.60983 0
652 1 Si 117.44 47.6101 1.62295 0
653 1 Si 114.285 48.3456 1.62501 0
654 1 Si 89.8931 28.1238 1.6448 0
655 1 Si 86.6827 28.4707 1.63177 0
656 1 Si 125.401 44.3085 1.62249 0
657 1 Si 122.095 45.2355 1.63207 0
658 1 Si 132.138 44.853 1.65359 0
659 1 Si 138.97 44.9459 1.6251 0
660 1 Si 135.556 45.9 1.62295 0
661 1 Si 96.345 28.5538 1.62962 0
662 1 Si 101.776 28.8225 1.62514 0
663 1 Si 99.1198 30.4104 1.62518 0
664 1 Si 128.666 45.6618 1.6262 0
665 1 Si 151.78 43.8817 1.63101 0
666 1 Si 145.721 45.1206 1.61192 0
667 1 Si 149.124 46.0184 1.63809 0
668 1 Si 155.258 44.2494 1.63274 0
669 1 Si 10.247 29.527 1.62997 0
670 1 Si 8.72564 32.4549 1.63945 0
671 1 Si 13.5034 30.1191 1.62757 0
672 1 Si 162.992 46.47 1.62906 0
673 1 Si 156.379 47.5375 1.64109 0
674 1 Si 159.885 48.5794 1.62722 0
675 1 Si 183.343 43.9812 1.6344 0
676 1 Si 180.214 45.5434 1.61597 0
677 1 Si 31.1947 29.9751 1.64735 0
678 1 Si 34.5946 30.0635 1.63016 0
679 1 Si 186.651 44.8888 1.6284 0
680 1 Si 41.176 29.494 1.61051 0
681 1 Si 49.3649 30.6977 1.62351 0
682 1 Si 54.98 30.5121 1.61565 0
683 1 Si 52.135 31.9495 1.61652 0
684 1 Si 1.01056 44.0505 1.63261 0
685 1 Si 204.689 44.5762 1.6137 0
686 1 Si 109.254 47.5587 1.63537 0
687 1 Si 106.074 46.6875 1.63042 0
688 1 Si 67.7166 29.9 1.64103 0
689 1 Si 70.9245 29.911 1.63749 0
690 1 Si 77.6063 29.0535 1.62745 0
691 1 Si 80.8277 28.723 1.62773 0
692 1 Si 122.23 48.375 1.62754 0
693 1 Si 128.133 48.7965 1.63111 0
694 1 Si 125.03 49.8032 1.61215 0
695 1 Si 94.7216 31.2316 1.63379 0
696 1 Si 91.5705 30.8894 1.637 0
697 1 Si 142.384 46.1883 1.62851 0
698 1 Si 136.265 49.0532 1.63567 0
699 1 Si 142.496 49.3887 1.62344 0
700 1 Si 139.345 50.2137 1.62558 0
701 1 Si 15.3768 32.765 1.63347 0
702 1 Si 18.5727 32.2547 1.6215 0
703 1 Si 166.469 46.885 1.61715 0
704 1 Si 25.6074 31.4831 1.63424 0
705 1 Si 28.8444 32.3276 1.61484 0
706 1 Si 36.6795 32.7986 1.60492 0
707 1 Si 39.9257 32.4589 1.62049 0
708 1 Si 174.867 48.1814 1.61957 0
709 1 Si 168.245 49.6121 1.62298 0
710 1 Si 171.729 49.7836 1.62725 0
711 1 Si 193.985 46.4855 1.62802 0
712 1 Si 187.978 48.1211 1.63739 0
713 1 Si 191.411 48.511 1.62488 0
714 1 Si 46.621 32.3239 1.59801 0
715 1 Si 199.663 46.5049 1.61139 0
716 1 Si 196.866 48.0831 1.6213 0
717 1 Si 62.0781 30.7793 1.64378 0
718 1 Si 56.9099 32.9737 1.61984 0
719 1 Si 60.0743 33.1935 1.63908 0
720 1 Si 3.68615 45.7412 1.62815 0
721 1 Si 6.16538 43.7589 1.62802 0
722 1 Si 65.2654 31.8741 1.63909 0
723 1 Si 119.558 50.1019 1.60078 0
724 1 Si 72.7486 32.4405 1.61559 0
725 1 Si 75.9072 31.851 1.6297 0
726 1 Si 130.552 50.9247 1.63459 0
727 1 Si 133.789 51.096 1.64822 0
728 1 Si 202.809 47.136 1.61819 0
729 1 Si 82.0687 31.9687 1.62422 0
730 1 Si 85.3426 31.6167 1.62752 0
731 1 Si 110.034 50.6495 1.62947 0
732 1 Si 113.106 51.4907 1.58928 0
733 1 Si 96.5454 33.8661 1.62657 0
734 1 Si 99.7237 33.6844 1.60699 0
735 1 Si 150.298 49.0996 1.61639 0
736 1 Si 153.606 49.7441 1.60895 0
737 1 Si 10.6539 35.3323 1.63432 0
738 1 Si 13.9496 35.6171 1.63332 0
739 1 Si 178.367 48.46 1.61839 0
740 1 Si 20.6259 34.7646 1.63245 0
741 1 Si 23.8835 34.2864 1.62214 0
742 1 Si 186.263 51.1119 1.63749 0
743 1 Si 179.63 51.5499 1.62031 0
744 1 Si 182.953 52.3972 1.61396 0
745 1 Si 28.884 35.6277 1.62286 0
746 1 Si 37.1605 36.1305 1.62106 0
747 1 Si 31.4233 37.5809 1.61304 0
748 1 Si 34.5628 37.879 1.62103 0
749 1 Si 41.7533 35.1857 1.61879 0
750 1 Si 45.0133 35.1259 1.6575 0
751 1 Si 193.365 51.2019 1.61755 0
752 1 Si 188.647 53.4422 1.62867 0
753 1 Si 191.911 53.9814 1.62678 0
754 1 Si 51.8168 35.0628 1.61309 0
755 1 Si 54.918 35.3594 1.6348 0
756 1 Si 204.315 49.8748 1.62729 0
757 1 Si 0.85008 50.1231 1.61808 0
758 1 Si 3.88033 48.8874 1.62914 0
759 1 Si 107.922 53.0294 1.63179 0
760 1 Si 104.775 52.2866 1.64253 0
761 1 Si 103.773 49.1154 1.6443 0
762 1 Si 66.731 34.7745 1.61035 0
763 1 Si 72.0949 35.5606 1.61559 0
764 1 Si 69.2401 36.8596 1.63051 0
765 1 Si 123.683 52.7422 1.61856 0
766 1 Si 120.43 53.2215 1.62779 0
767 1 Si 128.926 53.6397 1.62547 0
768 1 Si 125.994 54.844 1.62837 0
769 1 Si 77.1797 34.7729 1.62056 0
770 1 Si 80.442 35.1292 1.63595 0
771 1 Si 144.912 51.7199 1.6331 0
772 1 Si 140.158 53.262 1.6223 0
773 1 Si 143.091 54.4283 1.60743 0
774 1 Si 87.1652 34.374 1.63042 0
775 1 Si 90.2981 33.7533 1.6274 0
776 1 Si 148.266 51.7391 1.61886 0
777 1 Si 159.987 52.0593 1.61512 0
778 1 Si 153.473 53.08 1.60333 0
779 1 Si 156.833 53.7601 1.61797 0
780 1 Si 166.247 52.3372 1.62266 0
781 1 Si 163.092 53.6538 1.6302 0
782 1 Si 9.471 38.4132 1.63319 0
783 1 Si 171.733 52.9837 1.6109 0
784 1 Si 168.779 54.3065 1.60961 0
785 1 Si 15.8103 38.3583 1.62842 0
786 1 Si 19.0933 37.7371 1.62786 0
787 1 Si 177.429 54.2349 1.60312 0
788 1 Si 174.116 55.1385 1.62442 0
789 1 Si 25.846 36.88 1.60768 0
790 1 Si 196.656 51.312 1.62373 0
791 1 Si 40.0758 37.9639 1.61643 0
792 1 Si 46.769 37.8547 1.61809 0
793 1 Si 49.8898 37.4977 1.63091 0
794 1 Si 202.246 52.3858 1.61485 0
795 1 Si 199.175 53.5592 1.63715 0
796 1 Si 112.665 54.8211 1.62873 0
797 1 Si 118.587 56.0186 1.61957 0
798 1 Si 115.27 56.8229 1.61941 0
799 1 Si 61.4521 35.9879 1.63411 0
800 1 Si 56.3004 38.0753 1.63034 0
801 1 Si 59.3755 38.2661 1.62551 0
802 1 Si 64.4394 36.8445 1.62223 0
803 1 Si 74.8884 37.0741 1.61319 0
804 1 Si 135.063 53.9826 1.63161 0
805 1 Si 130.414 56.3172 1.62606 0
806 1 Si 133.433 56.5725 1.62326 0
807 1 Si 137.871 55.324 1.62279 0
808 1 Si 81.3169 38.5516 1.64656 0
809 1 Si 87.0259 37.6524 1.63691 0
810 1 Si 84.5546 39.8252 1.6331 0
811 1 Si 92.0783 36.3652 1.64375 0
812 1 Si 95.2258 36.7052 1.64178 0
813 1 Si 150.217 54.4415 1.62106 0
814 1 Si 142.751 57.7513 1.62503 0
815 1 Si 148.734 57.5747 1.63205 0
816 1 Si 145.684 58.9331 1.61712 0
817 1 Si 182.47 55.7546 1.63741 0
818 1 Si 179.263 56.9636 1.60587 0
819 1 Si 11.0196 41.5124 1.64631 0
820 1 Si 14.4223 41.4547 1.62236 0
821 1 Si 188.052 56.5099 1.62362 0
822 1 Si 185.151 57.7462 1.61217 0
823 1 Si 21.0933 40.2517 1.62338 0
824 1 Si 24.3697 39.7939 1.63287 0
825 1 Si 193.545 56.893 1.60348 0
826 1 Si 190.695 58.3102 1.61264 0
827 1 Si 1.07814 53.2296 1.61816 0
828 1 Si 204.829 54.1793 1.61575 0
829 1 Si 3.72599 54.9905 1.61467 0
830 1 Si 6.88002 50.3481 1.62619 0
831 1 Si 6.66961 53.7671 1.61345 0
832 1 Si 65.6928 39.7094 1.61555 0
833 1 Si 68.7801 40.0754 1.61598 0
834 1 Si 109.439 55.9002 1.61957 0
835 1 Si 107.414 58.6348 1.63348 0
836 1 Si 104.066 57.964 1.63564 0
837 1 Si 102.749 54.8595 1.64838 0
838 1 Si 75.5079 40.1864 1.62157 0
839 1 Si 78.7314 40.8034 1.61027 0
840 1 Si 125.852 58.056 1.63492 0
841 1 Si 128.888 58.9838 1.59603 0
842 1 Si 90.0782 38.7724 1.62933 0
843 1 Si 120.16 58.9289 1.62291 0
844 1 Si 123.346 60.0653 1.62603 0
845 1 Si 137.641 58.5061 1.63789 0
846 1 Si 140.289 60.2032 1.61667 0
847 1 Si 96.8763 39.4882 1.62373 0
848 1 Si 157.001 56.9149 1.61513 0
849 1 Si 159.967 58.0934 1.62483 0
850 1 Si 155.621 59.7316 1.60543 0
851 1 Si 158.564 60.9113 1.6043 0
852 1 Si 9.25839 44.53 1.63247 0
853 1 Si 163.027 57.0331 1.61428 0
854 1 Si 16.5297 44.1785 1.63965 0
855 1 Si 19.896 43.2902 1.61514 0
856 1 Si 168.799 57.5182 1.62069 0
857 1 Si 165.764 59.0817 1.63752 0
858 1 Si 31.469 40.7737 1.61228 0
859 1 Si 34.6597 41.0617 1.61066 0
860 1 Si 41.674 41.1646 1.62693 0