LAMMPS data file via write_data, version 23 Jun 2022, timestep = 7218

15492 atoms
2 atom types

5.728856932774244 198.83255609727908 xlo xhi
3.9525209093382103 172.3310048744206 ylo yhi
-100 100 zlo zhi

Masses

1 28.085
2 15.999

Atoms # full

9300 1 2 0 7.003644116344765 5.261671472309059 -2.0600350284545574 0 0 0
6618 1 1 0 8.545571227933122 4.762936152590933 -1.6379709319869284 0 0 0
9316 1 2 0 9.984426847295486 5.4941078027605466 -2.090347730269711 0 0 0
9317 1 2 0 12.936353711531837 6.011080117069866 -2.062363989449035 0 0 0
6819 1 1 0 14.510628756730256 5.578938594555408 -1.6216310508648426 0 0 0
9617 1 2 0 14.589022038322078 3.9594519321737853 -2.013680913486807 0 0 0
9633 1 2 0 21.7408631543932 4.283379868523196 -2.07697740715565 0 0 0
6829 1 1 0 22.817507102194703 5.531585577879438 -1.6339842357250733 0 0 0
9634 1 2 0 24.50855579365988 5.807959242851365 -2.015258159639965 0 0 0
6832 1 1 0 26.253499540075097 5.864194719857839 -1.6159198138678448 0 0 0
9638 1 2 0 26.585431460309646 4.335512685445718 -2.105909557265974 0 0 0
6845 1 1 0 32.870625734651554 5.999664193424623 -1.6065777367024665 0 0 0
9660 1 2 0 33.22842327097384 4.371170972157022 -1.8795683803855157 0 0 0
6848 1 1 0 38.85173970977098 5.71552499287194 -1.6297448535362267 0 0 0
9665 1 2 0 38.84607919680325 4.072851990647594 -2.0156272918539604 0 0 0
6858 1 1 0 44.718941667039964 5.641097482094891 -1.6455621123927158 0 0 0
9682 1 2 0 44.48076247898511 4.096429996718645 -2.142788920733647 0 0 0
9681 1 2 0 46.259529332988606 6.1399370414063 -2.0827820670926105 0 0 0
9684 1 2 0 49.10358524985439 5.5744290318987275 -2.047249372633054 0 0 0
6864 1 1 0 50.448347622111804 4.653614464096665 -1.6374255652650909 0 0 0
6866 1 1 0 53.47092040704135 5.725861013687417 -1.60821461024221 0 0 0
9691 1 2 0 51.963501451709114 5.188912527531303 -2.0912340771610913 0 0 0
6876 1 1 0 56.26728251142383 4.1537576086822705 -1.6385448222367027 0 0 0
9696 1 2 0 54.88897488754577 4.984542455473701 -2.096800836611629 0 0 0
9710 1 2 0 57.753698000044665 4.8541620656938145 -2.0438507235116 0 0 0
6875 1 1 0 59.24600704037671 5.54017006937488 -1.6397838704594092 0 0 0
9711 1 2 0 60.60997737121602 4.6992752855498 -2.108128299461401 0 0 0
9717 1 2 0 66.0189280345897 4.65444713791969 -2.167570249694308 0 0 0
6879 1 1 0 67.09073411015429 5.780949349160229 -1.6436917828429933 0 0 0
9718 1 2 0 68.5978148064306 5.263825165264049 -2.0975295445882036 0 0 0
6888 1 1 0 70.15337243069443 4.977200804988985 -1.6071025433620223 0 0 0
9743 1 2 0 75.09046368515656 4.411079748555337 -1.82861325548651 0 0 0
6895 1 1 0 75.85406355299845 5.80121634382631 -1.5862105756367462 0 0 0
9744 1 2 0 77.34515848568414 5.528963563678188 -2.150027756936437 0 0 0
6902 1 1 0 78.87044465673674 5.605328453028466 -1.6267353500845 0 0 0
9755 1 2 0 79.9981047881907 4.527013001698653 -2.03161414079989 0 0 0
6908 1 1 0 85.18350709348687 5.888134318199674 -1.5946391543139427 0 0 0
9764 1 2 0 84.7098619097135 4.400973787288846 -2.1213980879436174 0 0 0
6919 1 1 0 89.88250536292728 3.96368547174835 -1.5920093207799164 0 0 0
9779 1 2 0 89.7955821745628 5.539846872938611 -2.1249589559900763 0 0 0
6922 1 1 0 92.97982342484298 4.081302655958532 -1.6029234090265707 0 0 0
9784 1 2 0 93.1659174498218 5.641364629996247 -2.1294471533654042 0 0 0
9792 1 2 0 97.73857805030828 6.329178858542045 -2.140610963945401 0 0 0
6929 1 1 0 98.50962171775792 4.987349062161325 -1.6282796141575178 0 0 0
6503 1 1 0 101.59641884071289 4.98974536793166 -1.6278635153527101 0 0 0
9126 1 2 0 100.05245247091935 4.832840918931065 -2.1240975840355296 0 0 0
6617 1 1 0 11.345418626552876 6.362031047922318 -1.6361791287901277 0 0 0
9314 1 2 0 10.901993406331956 7.855252546248519 -2.1620960884929326 0 0 0
6820 1 1 0 17.07175072380323 7.648476236512749 -1.6212567944373262 0 0 0
9616 1 2 0 15.887477734813542 6.491305773346241 -2.083314567380077 0 0 0
9619 1 2 0 18.753271449354532 7.66877600343079 -2.067005184692934 0 0 0
6825 1 1 0 20.425480856327358 7.6681397045053385 -1.6217579636574948 0 0 0
9627 1 2 0 21.58754553128206 6.565473243263204 -2.1442437667439496 0 0 0
9639 1 2 0 27.9083685458127 6.44651202056421 -2.0051123851281427 0 0 0
6842 1 1 0 29.556187782191266 7.006593616677516 -1.6463997295080433 0 0 0
9652 1 2 0 29.59935381803925 8.620635174357382 -2.089506026750104 0 0 0
9654 1 2 0 31.177210876344855 6.377783310281248 -2.00112084962202 0 0 0
9656 1 2 0 34.374330837228676 6.818339009853805 -2.0408024589344436 0 0 0
6843 1 1 0 35.983487328521804 7.412258208025479 -1.6439981617653934 0 0 0
9657 1 2 0 37.36147402317502 6.469124914581289 -2.0351953575471633 0 0 0
6849 1 1 0 41.86317719750411 7.087652395259252 -1.6277456895184357 0 0 0
9664 1 2 0 40.335977680487204 6.457963964218695 -2.0630359857282388 0 0 0
9667 1 2 0 43.30236870657083 6.386565409873381 -2.1392319452542368 0 0 0
9666 1 2 0 42.20460460974731 8.661551064204017 -2.057622399820712 0 0 0
6859 1 1 0 47.8202088413206 6.577915317956654 -1.6346054714788758 0 0 0
9683 1 2 0 48.123031156714106 8.13624525303502 -2.1348320807667753 0 0 0
9693 1 2 0 53.53980456060481 7.320420043599836 -2.013258600232529 0 0 0
9703 1 2 0 59.51242180833955 7.1188371219778315 -2.122925311489754 0 0 0
6870 1 1 0 59.52491096396161 8.7060583881922 -1.6078123952065495 0 0 0
9714 1 2 0 66.5926574877658 7.299608105038839 -2.0996833428020083 0 0 0
9730 1 2 0 70.92194866406922 6.367548741904957 -1.988662568600329 0 0 0
6887 1 1 0 71.24237577075391 7.921719977713826 -1.622528710587142 0 0 0
9731 1 2 0 72.72527034287688 8.294217309339393 -2.1566319102746982 0 0 0
6891 1 1 0 74.25459366726922 8.408508687493278 -1.6415311801371422 0 0 0
9737 1 2 0 75.0684494317816 7.099266431089282 -2.138947716406004 0 0 0
6900 1 1 0 80.12839480146788 8.321705471673415 -1.6525335121250908 0 0 0
9752 1 2 0 79.36646434219044 7.02275028337056 -2.1829235273652032 0 0 0
9753 1 2 0 81.63408848615063 8.194323383378332 -2.184640755720789 0 0 0
6905 1 1 0 83.1216263866891 8.097664262372678 -1.6028014799570074 0 0 0
9760 1 2 0 83.85143468938126 6.727233357737034 -1.9633353401736802 0 0 0
9765 1 2 0 86.08453622987147 7.175498487299185 -2.1490038747228475 0 0 0
6913 1 1 0 87.03891011032013 8.439199721679426 -1.6514663706831243 0 0 0
9773 1 2 0 88.41682469620625 7.775994248574686 -2.171478704016245 0 0 0
6918 1 1 0 89.79938567334796 7.129145453111512 -1.6419309564173092 0 0 0
9780 1 2 0 90.75490171049772 8.39556066793694 -2.133176034814104 0 0 0
9783 1 2 0 92.96024131941925 8.607347058705354 -1.9530682999193605 0 0 0
6920 1 1 0 93.66203160817446 7.1419442529037465 -1.6277814418212047 0 0 0
9785 1 2 0 95.19201568828906 7.212030859357327 -2.1677800799311377 0 0 0
6925 1 1 0 96.7016717257949 7.481841740649221 -1.6437656794336872 0 0 0
9115 1 2 0 102.0597858981372 6.443804261021944 -2.1740256030179577 0 0 0
6613 1 1 0 7.407442691271855 10.299893157953596 -1.614889545622804 0 0 0
9298 1 2 0 6.087994766652047 9.461009293253683 -2.1516421446346152 0 0 0
9310 1 2 0 8.893780852056347 9.779042864706456 -2.113081945357062 0 0 0
6616 1 1 0 10.397565506333377 9.316827015918832 -1.6185161460830622 0 0 0
9315 1 2 0 11.606434396450926 10.333661548385228 -2.0232159783202706 0 0 0
9374 1 2 0 14.18521770869634 11.089396593277801 -2.1175210429738747 0 0 0
6821 1 1 0 15.698739648992772 10.583338027499085 -1.6158921074216925 0 0 0
9618 1 2 0 16.242323843441607 9.056194357269987 -1.9786106246176058 0 0 0
9626 1 2 0 21.606633604004713 8.797104701129753 -2.0631595322997196 0 0 0
9628 1 2 0 21.941357799093907 11.09819166809499 -2.1057303136735324 0 0 0
6826 1 1 0 22.86540783520941 9.832172481401788 -1.620208644818672 0 0 0
9629 1 2 0 24.48251950314882 10.035623589624269 -2.0986764887757854 0 0 0
6838 1 1 0 26.004299229075137 10.603473125411545 -1.6067783046514756 0 0 0
9648 1 2 0 27.583593971061145 10.268545609924061 -2.111733723885481 0 0 0
6841 1 1 0 29.20316129051673 10.17720472637162 -1.6410947802126794 0 0 0
6844 1 1 0 36.80707298360358 10.604074600695721 -1.626711406366243 0 0 0
9655 1 2 0 36.379511188087776 9.01591079329421 -2.082642596792226 0 0 0
9668 1 2 0 41.23306941464273 11.039252649585716 -2.139975650188577 0 0 0
6850 1 1 0 42.59840051057713 10.223839261471918 -1.6390258849456558 0 0 0
9669 1 2 0 44.10730785102472 10.85067240366731 -2.0793146010635697 0 0 0
9685 1 2 0 46.91877933453334 10.575406397956671 -2.027744811148775 0 0 0
6860 1 1 0 48.28714278366985 9.712543147995719 -1.6298333546442563 0 0 0
6867 1 1 0 51.26276277623091 10.879594843479845 -1.6240924296268462 0 0 0
9686 1 2 0 49.73356299989286 10.402733090723494 -2.104374024822477 0 0 0
6865 1 1 0 53.74294990652925 8.902473878897984 -1.6195310968580936 0 0 0
9694 1 2 0 52.47121638778376 9.84627180057268 -2.10515769598428 0 0 0
9695 1 2 0 55.22033002404154 9.422862928446557 -2.144918593228618 0 0 0
6871 1 1 0 56.6565479906546 10.032523040600735 -1.6173202031619778 0 0 0
9701 1 2 0 57.98185974145572 9.143631302783605 -1.962766931986124 0 0 0
9702 1 2 0 60.62954524194401 9.86618058911841 -2.098162602865759 0 0 0
9713 1 2 0 65.35089455160738 10.107050372717534 -2.0756465257699213 0 0 0
6877 1 1 0 66.34350716323233 8.862166508519374 -1.583792736326874 0 0 0
9715 1 2 0 67.7080547589195 9.644821040756819 -1.9956087607452477 0 0 0
6884 1 1 0 69.17672483592078 10.19102073618791 -1.6043921512749053 0 0 0
9726 1 2 0 70.20843823184185 9.058634496558058 -2.166845397974286 0 0 0
9736 1 2 0 75.00437153804229 9.743004921012506 -2.1587141700966623 0 0 0
6892 1 1 0 75.81391362378638 11.039042571543506 -1.645225782040265 0 0 0
9739 1 2 0 77.34295483430469 11.130617035134106 -2.151726842685193 0 0 0
6901 1 1 0 78.85486783115759 11.053366209565613 -1.6135493978051372 0 0 0
9751 1 2 0 79.46340488769091 9.677413483948941 -2.179789826002176 0 0 0
9759 1 2 0 83.90342591881422 9.444918630984981 -1.983765727971731 0 0 0
6906 1 1 0 83.89997526303881 11.00795374193586 -1.6146538516462179 0 0 0
9772 1 2 0 87.08813927135543 10.021745080065706 -2.144162942671155 0 0 0
6921 1 1 0 91.71343071308635 9.65825894887417 -1.5974194654258702 0 0 0
6926 1 1 0 97.33727537078745 10.502983122122563 -1.6373913403767453 0 0 0
9791 1 2 0 97.03101700459491 8.988360158787545 -2.146371916794251 0 0 0
9122 1 2 0 98.88627123417821 10.672192087797207 -2.132964426639727 0 0 0
6501 1 1 0 100.40575038793662 10.369451715842027 -1.6220075143308683 0 0 0
9114 1 2 0 101.13030908265843 8.990660308198605 -2.0787093808370556 0 0 0
9309 1 2 0 7.171242374022037 11.880671514271157 -1.9634615305198173 0 0 0
6615 1 1 0 7.441889129005379 13.456128185169336 -1.6084731653446467 0 0 0
9372 1 2 0 11.74316838998877 12.824322835456986 -2.085723910401261 0 0 0
6655 1 1 0 12.652289811451842 11.518901273529385 -1.6050245585354135 0 0 0
9620 1 2 0 16.893866996007205 11.577152734056362 -2.1356617661827086 0 0 0
6828 1 1 0 17.952089935390685 12.72235378197247 -1.6506625932121561 0 0 0
9630 1 2 0 19.505173637790353 12.510664101242007 -2.1475566700228508 0 0 0
6827 1 1 0 21.052718640503237 12.37126675305296 -1.6115594337004542 0 0 0
9631 1 2 0 22.082176873974035 13.55303917540877 -2.0549983702429917 0 0 0
9647 1 2 0 26.236650263570812 12.176205127027155 -2.0121096346769263 0 0 0
9653 1 2 0 30.35892928946979 11.371432374268323 -2.0383768080835547 0 0 0
6846 1 1 0 31.37114576606491 12.695580223433742 -1.6171238482484953 0 0 0
9661 1 2 0 33.04156551817746 12.908964649217635 -2.0670849161102693 0 0 0
6847 1 1 0 34.71948780431465 13.065829641850861 -1.617934060079501 0 0 0
9658 1 2 0 35.58055917711473 11.681252876383061 -1.995826771704074 0 0 0
9659 1 2 0 38.34490343990582 11.211937455280983 -2.025609585797883 0 0 0
6851 1 1 0 39.86775149689098 11.84227888715615 -1.6125674695829793 0 0 0
9670 1 2 0 40.30322767857027 13.408632804760227 -1.9946843339587392 0 0 0
6861 1 1 0 45.600171941472084 11.517666050503681 -1.630281227420533 0 0 0
9687 1 2 0 45.93887991454129 13.092895321114533 -2.118120256278248 0 0 0
9697 1 2 0 51.66942034182471 12.443215277113573 -2.017958980075664 0 0 0
6873 1 1 0 57.11835126378797 13.07621844282134 -1.614705906532412 0 0 0
9704 1 2 0 56.950291743335704 11.54678763338081 -2.152977867004359 0 0 0
9705 1 2 0 60.878125049675546 12.656945256571474 -2.1133592797399627 0 0 0
6872 1 1 0 61.518316226890796 11.209349482165003 -1.6439511959204989 0 0 0
9706 1 2 0 63.08822528414268 11.340676254425015 -2.157136320673757 0 0 0
6878 1 1 0 64.64929794208349 11.553682725170741 -1.6375667170006887 0 0 0
9716 1 2 0 65.37692730019043 13.016016302334862 -2.0630732676598265 0 0 0
6885 1 1 0 69.28470600439198 13.30160184986046 -1.6233813257921839 0 0 0
9725 1 2 0 69.32534410978785 11.737161597200362 -2.110482392985391 0 0 0
9738 1 2 0 75.17443763681723 12.424173904009066 -2.1551824265937563 0 0 0
9754 1 2 0 79.89084619206211 12.234329932459367 -1.9755727675214505 0 0 0
6907 1 1 0 81.3962094204949 12.69492453522057 -1.6319035185546615 0 0 0
9761 1 2 0 82.54539336745106 11.689817005473545 -2.1569359014868996 0 0 0
9762 1 2 0 85.29666606119079 11.678445361621057 -2.0284819397846885 0 0 0
6914 1 1 0 86.86084032841414 11.583949602252682 -1.6256130791390815 0 0 0
9774 1 2 0 87.46184830285482 13.0365590415539 -2.1088376600233865 0 0 0
6927 1 1 0 92.08662480406663 12.901470419436164 -1.6442143332722803 0 0 0
9786 1 2 0 91.65071952976791 11.297330945580915 -2.038149082797494 0 0 0
9794 1 2 0 93.6685865287958 12.833011093309796 -2.113592199033261 0 0 0
6928 1 1 0 95.23677765624947 12.840767219508942 -1.6384624161121888 0 0 0
9793 1 2 0 96.20559840422928 11.59506056492439 -2.101808584381102 0 0 0
9120 1 2 0 101.37517169797437 11.58661170602598 -2.0334144234105103 0 0 0
6500 1 1 0 101.81023548793127 13.070732495992168 -1.6159684496829234 0 0 0
9311 1 2 0 6.125557047129539 14.343889777964943 -2.114737307044724 0 0 0
9313 1 2 0 8.997086869162768 13.736464222684349 -2.1113969679217153 0 0 0
6654 1 1 0 10.576329491089753 13.913188563382496 -1.6394013606229705 0 0 0
9373 1 2 0 11.069206556475308 15.374990475119734 -2.1679490279122904 0 0 0
9632 1 2 0 17.305583754323344 14.134543646027673 -2.144852339389352 0 0 0
6934 1 1 0 16.95190995418962 15.635056490262953 -1.6414438268209255 0 0 0
6840 1 1 0 23.37992665317171 14.440128834666146 -1.6346081500216696 0 0 0
9649 1 2 0 24.890707315484665 14.157536806831734 -2.1642083704083004 0 0 0
9651 1 2 0 23.046786721959364 15.916485958010842 -2.1640759544213783 0 0 0
6839 1 1 0 26.369833614242353 13.749519519833669 -1.5996227220829569 0 0 0
9650 1 2 0 27.75029835445658 14.485182914811084 -2.114684907543182 0 0 0
6936 1 1 0 29.211417125548596 15.087044490611044 -1.6212129646113915 0 0 0
9662 1 2 0 30.481019561449642 14.068212967737688 -1.9492453403458867 0 0 0
9663 1 2 0 35.89394927128831 14.246181132888688 -2.055042901518379 0 0 0
6938 1 1 0 37.17808095824824 15.297044999750376 -1.6386332742614755 0 0 0
9808 1 2 0 38.829681805262695 15.222375316097619 -2.0546663390615443 0 0 0
6937 1 1 0 40.47780024426768 15.031751240223036 -1.6077049819896454 0 0 0
9809 1 2 0 41.96789964402366 15.84414628369782 -2.0672521094306515 0 0 0
6939 1 1 0 46.239358497949404 14.672623327760885 -1.6187561216229367 0 0 0
9811 1 2 0 44.86424391005994 15.561868330129444 -1.9930224454986631 0 0 0
9812 1 2 0 47.72421725468931 15.375157680006133 -2.0508941046924414 0 0 0
9817 1 2 0 50.51011529379757 14.89409657541332 -2.1159676129657816 0 0 0
6944 1 1 0 49.27678917113512 15.90620049119969 -1.6341709319068793 0 0 0
6943 1 1 0 51.856181114285995 14.0498914596184 -1.631815356466926 0 0 0
9818 1 2 0 53.29818986652089 14.751861374311073 -2.1218385354492084 0 0 0
6946 1 1 0 54.83748141934198 15.16670862248139 -1.6165706302655602 0 0 0
9708 1 2 0 55.81307062604 13.934715254664166 -2.053265071266921 0 0 0
9707 1 2 0 58.526932491774986 13.802038313997357 -1.9942973827553205 0 0 0
6874 1 1 0 60.09949435518908 14.013882944257196 -1.602085739594155 0 0 0
9709 1 2 0 60.59080089459509 15.546870065212307 -1.9681761503404611 0 0 0
9729 1 2 0 65.87431160841491 15.96738625280962 -2.109928410100315 0 0 0
6886 1 1 0 66.27753549984205 14.381396277618034 -1.623367782901686 0 0 0
9727 1 2 0 67.86352293482156 14.05926723325531 -1.990542677002307 0 0 0
9728 1 2 0 70.65148693403175 14.04822028692714 -2.1645366272990962 0 0 0
6893 1 1 0 71.98825089530946 14.845425714862852 -1.6338546147001585 0 0 0
9740 1 2 0 73.47724085581807 14.376714976366335 -2.1345373330244 0 0 0
6894 1 1 0 74.97452693818381 13.940420628548024 -1.6422457536518944 0 0 0
9742 1 2 0 76.30322656208833 14.796879024918349 -2.0888021227263143 0 0 0
6951 1 1 0 82.41145251165193 15.536693010030486 -1.6154210415733983 0 0 0
9763 1 2 0 81.90879001039596 14.115156959330461 -2.1922515964989437 0 0 0
6950 1 1 0 87.56607675679294 14.603692149845775 -1.6204192799180588 0 0 0
9827 1 2 0 86.41076220709405 15.631248668571741 -2.1672133872939403 0 0 0
9828 1 2 0 88.99137761303616 15.275170448525584 -2.0275990108072026 0 0 0
9795 1 2 0 91.35725254593515 14.4076481366632 -2.0853842314978768 0 0 0
6953 1 1 0 90.47639151562659 15.83484801166635 -1.607104117893076 0 0 0
9796 1 2 0 95.8944628513455 14.24526355648788 -2.1458796192247847 0 0 0
6954 1 1 0 96.85704808438841 15.416288066620995 -1.5771863490239344 0 0 0
9322 1 2 0 98.3919258972503 14.98423188631209 -1.8381316450265976 0 0 0
6620 1 1 0 99.9307076986541 15.384908846695073 -1.5855996760786735 0 0 0
9121 1 2 0 100.79766920985023 14.177753690407814 -2.17590993725889 0 0 0
9383 1 2 0 10.320347913536304 17.912767911588528 -1.9872152093890387 0 0 0
6662 1 1 0 11.490437507122499 16.84570287002259 -1.6204147417557455 0 0 0
6935 1 1 0 14.507804738712908 17.48827567788061 -1.642927672909598 0 0 0
9385 1 2 0 12.975894480097903 17.263522087453634 -2.1430452837646015 0 0 0
9804 1 2 0 15.530259731740804 16.292384173988307 -2.0740104486161197 0 0 0
6956 1 1 0 19.31064047426722 17.52134322930696 -1.6064777030740365 0 0 0
9805 1 2 0 18.13323374604497 16.594551799290908 -2.1931926582156205 0 0 0
9834 1 2 0 20.782481192913362 17.06278762582133 -2.0257530744199355 0 0 0
6955 1 1 0 22.323599870140896 17.233893171868363 -1.6234134302812868 0 0 0
9807 1 2 0 29.442107570334937 16.65173529142648 -2.124241133731273 0 0 0
6960 1 1 0 29.310041623108038 18.219147992253866 -1.6121333814962546 0 0 0
9810 1 2 0 36.844886929446126 16.825890100486266 -2.166140225986264 0 0 0
6963 1 1 0 36.7450517555874 18.372642844614848 -1.6318725181382925 0 0 0
6940 1 1 0 43.533836745468406 16.528829726744704 -1.6284550484344795 0 0 0
9813 1 2 0 44.09289690695457 18.10344896640994 -2.0557071069710937 0 0 0
9819 1 2 0 49.74576490362781 17.454409497217636 -2.078286116256679 0 0 0
9821 1 2 0 55.872084398759064 16.383918857564602 -2.102897724680066 0 0 0
6972 1 1 0 57.11184717074998 17.39137489640769 -1.6404647815464481 0 0 0
9860 1 2 0 58.69143410368315 17.2301738747637 -2.116595778771115 0 0 0
6971 1 1 0 60.27717359190139 17.13335729321437 -1.6245554851169575 0 0 0
9861 1 2 0 61.42289107835483 18.250175836972126 -2.1243297000446257 0 0 0
6973 1 1 0 65.58707281547012 17.5736889919569 -1.6161858721696631 0 0 0
9863 1 2 0 64.08721393573316 18.198031221390483 -1.9889541693072068 0 0 0
9741 1 2 0 71.90914599732889 16.40781101044477 -2.090042028393064 0 0 0
6947 1 1 0 72.30213257004245 17.919396411637035 -1.6325475906754188 0 0 0
9822 1 2 0 73.79053045142771 18.367816928140368 -2.1099425821217115 0 0 0
9824 1 2 0 76.04819008523228 17.069214872888004 -1.9410558095787942 0 0 0
6948 1 1 0 77.25346544663607 16.048222993546904 -1.589681478270197 0 0 0
9825 1 2 0 78.61858203676074 16.767124416465048 -2.1672196839621503 0 0 0
6982 1 1 0 80.01817539295433 17.447242958455654 -1.617470676563073 0 0 0
9830 1 2 0 81.18130226318866 16.445447188012313 -2.0981174646067036 0 0 0
9829 1 2 0 83.82946121710141 16.12012473175753 -2.1285372450549347 0 0 0
6952 1 1 0 85.271666546899 16.676789810876016 -1.6291327176282917 0 0 0
9831 1 2 0 85.48225908126267 18.25344473456643 -1.9949548449338874 0 0 0
9832 1 2 0 90.33170971160952 17.528406381867704 -2.027075270425774 0 0 0
9833 1 2 0 97.05524154222057 16.928129091803395 -2.1258392266842328 0 0 0
6990 1 1 0 97.72700128242563 18.321710375340032 -1.6475165339683648 0 0 0
9321 1 2 0 100.52322200214084 16.800301297502106 -2.08026228400731 0 0 0
6621 1 1 0 100.76044745822554 18.337066293094217 -1.6043768004099443 0 0 0
6660 1 1 0 6.618764805737384 19.93453442004884 -1.6403174331609476 0 0 0
6661 1 1 0 9.68691223467308 19.366088643429965 -1.6278686727634715 0 0 0
9381 1 2 0 8.145696277949558 19.597627428589686 -2.157367661247932 0 0 0
9384 1 2 0 10.810479388832007 20.44638311745053 -2.1366132681828893 0 0 0
9806 1 2 0 15.084955640260835 18.93075061786629 -2.1336530956319018 0 0 0
6996 1 1 0 15.809255363461212 20.296982026650912 -1.6446216502600126 0 0 0
9898 1 2 0 17.315805035400864 20.550379231230774 -2.1660533071338923 0 0 0
9836 1 2 0 19.20199646645414 19.042990780089333 -2.0742612011664407 0 0 0
6998 1 1 0 18.81901222196131 20.528580459214506 -1.6030591855806586 0 0 0
6961 1 1 0 23.732187034183262 19.90712143997135 -1.6378130275935925 0 0 0
9835 1 2 0 22.990363661260297 18.58308570642008 -2.1765114740250695 0 0 0
9844 1 2 0 25.25625149248534 19.878014430727948 -2.184817946336591 0 0 0
6962 1 1 0 26.76782652857931 19.96065809821887 -1.6031815979001298 0 0 0
9842 1 2 0 27.807306540829156 18.763191890708605 -1.9314717966613286 0 0 0
9843 1 2 0 30.320299074548892 19.421577577026337 -2.1286887946444364 0 0 0
6965 1 1 0 31.28592058634359 20.67501249161922 -1.6542194783097872 0 0 0
9849 1 2 0 32.80785358490743 20.355079981924135 -2.169446946416166 0 0 0
6964 1 1 0 34.341140537638125 20.306485845686336 -1.613228642483019 0 0 0
9847 1 2 0 35.30944035684986 19.055709683891894 -2.003212617527614 0 0 0
9848 1 2 0 37.981858047386254 19.36380322557076 -2.074960162044759 0 0 0
7001 1 1 0 38.821675624357255 20.70231703862116 -1.6066803052873775 0 0 0
9910 1 2 0 43.28545397259631 20.60983244817178 -2.0747299799675933 0 0 0
7005 1 1 0 44.622323396989316 19.69766354115665 -1.6360098563746408 0 0 0
9911 1 2 0 46.14882560470554 20.476024709990213 -2.021195012762166 0 0 0
9913 1 2 0 48.80625452878107 19.907184638349776 -1.9466345048221685 0 0 0
7007 1 1 0 50.154934522641774 19.013038232964227 -1.6146812039913654 0 0 0
9914 1 2 0 51.58352093772542 19.75514886864903 -2.1336691923079867 0 0 0
7011 1 1 0 52.99422968390781 20.50249787331043 -1.6017422206920875 0 0 0
9919 1 2 0 54.55930699739237 20.265107703071056 -2.1355705115539765 0 0 0
7012 1 1 0 56.13510581511728 20.29378688887755 -1.6230200446251069 0 0 0
9862 1 2 0 56.72015469634423 18.880655752610256 -2.1612028011487205 0 0 0
6974 1 1 0 62.760855881762716 19.142336286771926 -1.6206519704077362 0 0 0
9865 1 2 0 62.83754906981872 20.789047526866565 -2.031390281195218 0 0 0
9864 1 2 0 66.5538255112073 18.861454591585986 -2.075953915175942 0 0 0
6978 1 1 0 67.31915561374467 20.2697298930954 -1.6138937985819024 0 0 0
9871 1 2 0 68.86361839024592 20.224976005159135 -2.1467689764000686 0 0 0
6979 1 1 0 70.40547654755609 20.34892956296117 -1.646418321966682 0 0 0
9823 1 2 0 71.23432247639175 19.036056579064432 -2.1161853809167064 0 0 0
6949 1 1 0 75.32534885617977 18.45574032833019 -1.5926992275060756 0 0 0
9826 1 2 0 76.34405073755406 19.58799777242597 -2.1417090726635997 0 0 0
9877 1 2 0 80.7963138572448 18.827358677296385 -2.0707757788202183 0 0 0
7013 1 1 0 81.91715243734573 19.96510136756924 -1.64518084534314 0 0 0
9923 1 2 0 83.48793436457312 19.93221506172669 -2.1588344656638347 0 0 0
7016 1 1 0 85.05036924434121 19.788536399642684 -1.618119949661772 0 0 0
9888 1 2 0 88.91413431574499 20.349874102365565 -1.9832607584915645 0 0 0
6989 1 1 0 90.19385248860782 19.223980507478593 -1.6372038366354273 0 0 0
9887 1 2 0 91.58709519292324 19.997710640349098 -2.1510528849569974 0 0 0
6991 1 1 0 92.95928865506124 20.733327193978532 -1.595275713535519 0 0 0
9890 1 2 0 94.50882469765448 20.528327881367854 -2.1350978489207257 0 0 0
9889 1 2 0 96.79848229720128 19.48161142111295 -2.212007743999432 0 0 0
6992 1 1 0 96.04855378121856 20.772996705434803 -1.6501616278881979 0 0 0
9323 1 2 0 99.2466826894462 18.686702443879053 -2.0740119725759363 0 0 0
9319 1 2 0 102.19531652404282 18.806373561274714 -2.177999246336615 0 0 0
9382 1 2 0 6.166179646109614 21.44017217598393 -2.089604908255835 0 0 0
6706 1 1 0 11.761064374721025 21.660196703421185 -1.589060524339673 0 0 0
9450 1 2 0 10.912850374560055 22.972717523274298 -1.9896161548749598 0 0 0
9452 1 2 0 13.126523976292944 22.41578430792523 -2.126239014214811 0 0 0
9897 1 2 0 15.223039668250282 21.69741542748975 -2.1910250447229593 0 0 0
6997 1 1 0 14.562273208820312 23.0695407623738 -1.6312520711599596 0 0 0
9900 1 2 0 20.061355992177248 21.362477122635706 -2.184262259739403 0 0 0
7021 1 1 0 21.453974476381838 21.955438392371576 -1.6373016900610564 0 0 0
9845 1 2 0 22.813018576550707 21.17566952242447 -2.0423484015477 0 0 0
9846 1 2 0 27.314286297584093 21.41266970165023 -2.0509603774026366 0 0 0
7024 1 1 0 27.31747009545355 22.961593658679746 -1.6049247897210965 0 0 0
9851 1 2 0 30.892929020630042 22.216252555685802 -2.11640063651222 0 0 0
9850 1 2 0 35.15078904592289 21.65160165399485 -2.0337343123855574 0 0 0
7002 1 1 0 36.359391020486896 22.649128674407674 -1.604225189001645 0 0 0
9904 1 2 0 37.8433258776372 21.998141781772933 -1.897235767736359 0 0 0
7006 1 1 0 41.89353328352924 21.410054129426022 -1.6312726312627581 0 0 0
9905 1 2 0 40.406258370722426 20.82777741951286 -2.0769044583405867 0 0 0
9912 1 2 0 41.874713431163 22.97846625310851 -2.117827148762041 0 0 0
7008 1 1 0 47.738640070981596 21.128410735277793 -1.6004168206119886 0 0 0
9915 1 2 0 48.792461295167655 22.460950987213828 -2.0504208636050327 0 0 0
9920 1 2 0 53.43577402028235 22.076746525875507 -1.927182248685872 0 0 0
9921 1 2 0 57.23579710577044 21.49049256504433 -1.922394720074269 0 0 0
7032 1 1 0 57.650254178633006 23.072623326946154 -1.6054222701862335 0 0 0
7037 1 1 0 63.010905411175905 22.4356019962974 -1.6331014492626252 0 0 0
9958 1 2 0 64.51499212430225 23.058752628363614 -2.0464229134981005 0 0 0
9872 1 2 0 66.7629009656282 21.788390261002053 -2.0176134743330643 0 0 0
9873 1 2 0 71.08753745283494 21.736491559571114 -2.173285822134756 0 0 0
7044 1 1 0 71.87648932932109 23.05650285921042 -1.626277631873911 0 0 0
9965 1 2 0 73.42244350605009 23.011968043221493 -2.111196721201424 0 0 0
7043 1 1 0 74.95088053352636 23.13561611067314 -1.6094770740840405 0 0 0
7014 1 1 0 77.04177118490126 20.956859249183562 -1.6354259457039861 0 0 0
9925 1 2 0 75.94859666966194 22.00935963344937 -2.1832827307506033 0 0 0
9924 1 2 0 78.54699795038901 21.35530885899079 -2.0733297418521492 0 0 0
7015 1 1 0 79.86219537237503 22.21087627612549 -1.6376078371937541 0 0 0
9922 1 2 0 81.15118972263012 21.33097907230862 -2.084459159071637 0 0 0
9927 1 2 0 86.25104166652866 20.839070310419473 -2.0724462489856355 0 0 0
7017 1 1 0 87.69799292635311 21.546546792914395 -1.6352322594070594 0 0 0
9891 1 2 0 93.51102521082043 22.25631797631152 -2.0010384417352647 0 0 0
9892 1 2 0 97.10295427950685 21.936210895395533 -2.1177785694922733 0 0 0
9446 1 2 0 6.734338296341455 24.078989634737013 -2.1741956264749502 0 0 0
6704 1 1 0 7.7891176895620715 25.17138752304959 -1.6149539033961329 0 0 0
9448 1 2 0 9.280780611006586 24.938255343456696 -2.17715554654295 0 0 0
6705 1 1 0 10.723241722638843 24.51462376809289 -1.6063129280372042 0 0 0
9451 1 2 0 11.94722020723154 25.475580088731544 -2.0197351595513555 0 0 0
9899 1 2 0 15.275062005259725 24.466652579660753 -2.132271709226388 0 0 0
9933 1 2 0 21.420861079991642 23.477848131077323 -2.1254327642240582 0 0 0
7055 1 1 0 21.939780106296517 24.899249377410392 -1.6078258793452531 0 0 0
9983 1 2 0 23.475499143269076 24.702646820642073 -2.05735744924484 0 0 0
7062 1 1 0 25.006135654746807 24.91058593047089 -1.6303145790238462 0 0 0
9938 1 2 0 26.061273712590143 23.81329283638177 -2.1689879392290456 0 0 0
9937 1 2 0 28.729423413936406 23.640810956404877 -1.9637934874717389 0 0 0
7025 1 1 0 30.306723858179 23.67414755258559 -1.597383310054521 0 0 0
9939 1 2 0 30.67799104795164 25.189554457498527 -2.1306638485849283 0 0 0
9906 1 2 0 36.05065199194901 24.1660205860492 -2.1431144679759115 0 0 0
10006 1 2 0 40.61276578185428 25.39482425285801 -2.1166010712078966 0 0 0
7070 1 1 0 41.95723307109769 24.5440793982367 -1.6396832319369712 0 0 0
10007 1 2 0 43.46465015334332 25.01339446782948 -2.141236302107992 0 0 0
9947 1 2 0 48.82466666330294 25.00502593898209 -2.1647528524163455 0 0 0
7030 1 1 0 49.82397617977008 23.82856092201745 -1.6399122055416875 0 0 0
9946 1 2 0 51.26055287294226 24.781777642188455 -1.9928019219494313 0 0 0
9944 1 2 0 53.75980557691537 24.631559801393276 -2.1374136307393705 0 0 0
7029 1 1 0 54.515546599642256 23.294589585851188 -1.621337608047469 0 0 0
9945 1 2 0 56.0910760818881 23.36424871218181 -2.1278326645077095 0 0 0
7038 1 1 0 60.50943394393008 24.566335618242437 -1.6535228730096336 0 0 0
9949 1 2 0 59.05757747785727 23.83022748811707 -2.132300320765659 0 0 0
9957 1 2 0 61.79027656415018 23.533501824269056 -2.094114904980212 0 0 0
7040 1 1 0 66.12677596178324 23.282267411054526 -1.6191527762512483 0 0 0
9961 1 2 0 67.00032404086575 24.68885148749764 -2.0742732401919977 0 0 0
9967 1 2 0 71.28769067967463 24.504531613315685 -2.0673172581764425 0 0 0
9966 1 2 0 75.74968514112821 24.45499798969456 -2.071691425845874 0 0 0
9926 1 2 0 79.81744202512724 23.754660605568407 -2.161941138547113 0 0 0
7081 1 1 0 79.57377618475465 25.286117728709208 -1.6361878101945495 0 0 0
7082 1 1 0 87.42071561071997 24.92947720946255 -1.6419644437844008 0 0 0
9928 1 2 0 87.60835026537067 23.24016137542894 -2.0759761522697984 0 0 0
7085 1 1 0 94.59245746475605 23.443592196803415 -1.6142812281625398 0 0 0
10029 1 2 0 93.93706458182459 24.801328719269545 -2.189437828933347 0 0 0
10030 1 2 0 96.18067162462476 23.70613290394243 -1.991001247759086 0 0 0
7088 1 1 0 97.76371583880677 23.36218807410767 -1.5946219805262658 0 0 0
9499 1 2 0 99.09093652898774 24.17310165046143 -2.166200534556348 0 0 0
6737 1 1 0 100.44648119162729 24.983744484686977 -1.6377694938779725 0 0 0
9436 1 2 0 101.92806168956407 24.394151257480882 -2.027593136054668 0 0 0