ITEM: TIMESTEP
3098
ITEM: NUMBER OF ATOMS
15576
ITEM: BOX BOUNDS pp pp pp
0.0000000000000000e+00 2.0430275228855953e+02
0.0000000000000000e+00 1.7760685596380944e+02
-1.0000000000000000e+02 1.0000000000000000e+02
ITEM: ATOMS id type element x y z v_uncoordination
1 1 Si 138.478 31.1742 1.62866 0
2 1 Si 135.383 32.4682 1.64349 0
3 1 Si 138.053 28.0524 1.61917 0
4 1 Si 134.948 28.0529 1.59834 0
5 1 Si 132.893 30.3614 1.62228 0
6 1 Si 141.74 31.7056 1.62707 0
7 1 Si 141.818 35.0523 1.62164 0
8 1 Si 147.551 33.9356 1.63263 0
9 1 Si 144.956 35.8345 1.61271 0
10 1 Si 144.461 29.4215 1.62457 0
11 1 Si 147.555 30.7261 1.61541 0
12 1 Si 134.214 35.4751 1.62656 0
13 1 Si 139.689 37.6371 1.64383 0
14 1 Si 136.385 37.9047 1.63039 0
15 1 Si 149.374 38.7465 1.62244 0
16 1 Si 150.277 35.678 1.61656 0
17 1 Si 146.182 38.8001 1.62192 0
18 1 Si 151.107 41.4127 1.64399 0
19 1 Si 153.283 34.5585 1.63069 0
20 1 Si 155.855 36.6159 1.61432 0
21 1 Si 156.449 39.8045 1.64666 0
22 1 Si 154.235 41.9833 1.63041 0
23 1 Si 144.348 41.3811 1.61975 0
24 1 Si 144.829 44.6083 1.6304 0
25 1 Si 150.06 44.3617 1.61304 0
26 1 Si 147.592 46.2915 1.62804 0
27 1 Si 1.40326 50.5847 1.6244 0
28 1 Si 3.9882 53.0638 1.6332 0
29 1 Si 2.69422 45.6346 1.62537 0
30 1 Si 0.030654 47.3945 1.62436 0
31 1 Si 5.61029 46.9088 1.62164 0
32 1 Si 7.69886 49.4177 1.61552 0
33 1 Si 7.37695 52.7706 1.62683 0
34 1 Si 203.008 52.2471 1.61464 0
35 1 Si 0.0352684 55.1984 1.61895 0
36 1 Si 3.07635 56.3358 1.61535 0
37 1 Si 199.802 51.649 1.63681 0
38 1 Si 199.234 54.818 1.6367 0
39 1 Si 201.734 56.8747 1.64299 0
40 1 Si 108.846 5.6687 1.62831 0
41 1 Si 106.695 8.1942 1.62835 0
42 1 Si 111.76 7.11852 1.6002 0
43 1 Si 111.01 10.2032 1.605 0
44 1 Si 107.973 11.2297 1.61642 0
45 1 Si 108.315 2.4278 1.6121 0
46 1 Si 103.526 7.46354 1.63326 0
47 1 Si 103.315 3.89215 1.64106 0
48 1 Si 105.319 1.09572 1.60729 0
49 1 Si 115.055 6.83114 1.64442 0
50 1 Si 115.709 3.70301 1.62076 0
51 1 Si 113.865 0.96578 1.6258 0
52 1 Si 110.604 0.0997077 1.62068 0
53 1 Si 117.738 8.90901 1.63714 0
54 1 Si 113.63 11.9183 1.63794 0
55 1 Si 116.827 11.9232 1.63002 0
56 1 Si 118.949 3.4416 1.61853 0
57 1 Si 119.346 0.285751 1.62532 0
58 1 Si 116.403 176.538 1.62115 0
59 1 Si 121.401 5.5396 1.6283 0
60 1 Si 121.085 8.79152 1.6111 0
61 1 Si 124.407 4.52174 1.61621 0
62 1 Si 126.104 1.85734 1.64887 0
63 1 Si 122.098 176.256 1.60098 0
64 1 Si 125.276 176.492 1.62882 0
65 1 Si 126.832 6.55096 1.62854 0
66 1 Si 126.91 9.68316 1.62404 0
67 1 Si 123.79 10.9101 1.64024 0
68 1 Si 129.471 4.90187 1.6135 0
69 1 Si 129.228 1.82436 1.60231 0
70 1 Si 132.55 5.43858 1.6023 0
71 1 Si 132.844 8.60991 1.6388 0
72 1 Si 130.121 10.6519 1.64494 0
73 1 Si 134.158 2.60358 1.64039 0
74 1 Si 131.921 0.159502 1.61792 0
75 1 Si 138.437 6.15451 1.62302 0
76 1 Si 137.452 2.94152 1.62945 0
77 1 Si 136.166 8.61872 1.62182 0
78 1 Si 141.683 7.03264 1.64457 0
79 1 Si 143.858 4.66572 1.62822 0
80 1 Si 142.876 1.55598 1.60659 0
81 1 Si 139.722 0.464082 1.63503 0
82 1 Si 143.037 10.0768 1.60715 0
83 1 Si 137.355 11.5673 1.63242 0
84 1 Si 140.5 11.8933 1.61177 0
85 1 Si 147.077 5.3504 1.62114 0
86 1 Si 148.222 2.20614 1.62079 0
87 1 Si 145.731 177.515 1.62075 0
88 1 Si 148.626 8.44546 1.62785 0
89 1 Si 145.255 12.5905 1.64191 0
90 1 Si 148.416 11.9966 1.64045 0
91 1 Si 153.229 4.89848 1.62358 0
92 1 Si 151.756 7.82152 1.61889 0
93 1 Si 151.568 1.98624 1.63536 0
94 1 Si 156.353 5.83706 1.63625 0
95 1 Si 156.397 9.07149 1.60918 0
96 1 Si 153.544 10.4971 1.61401 0
97 1 Si 159.279 4.35498 1.64929 0
98 1 Si 159.309 1.06773 1.62837 0
99 1 Si 153.268 176.744 1.63966 0
100 1 Si 156.574 176.853 1.60197 0
101 1 Si 161.961 6.3102 1.60802 0
102 1 Si 161.689 9.51919 1.61752 0
103 1 Si 158.905 10.9709 1.64061 0
104 1 Si 165.245 6.17975 1.6397 0
105 1 Si 166.699 3.24562 1.63033 0
106 1 Si 165.235 0.223923 1.62445 0
107 1 Si 162.027 176.757 1.62566 0
108 1 Si 166.793 9.14604 1.62653 0
109 1 Si 164.357 11.258 1.64251 0
110 1 Si 170.013 3.23232 1.61896 0
111 1 Si 170.572 0.0113398 1.62175 0
112 1 Si 167.847 175.818 1.61856 0
113 1 Si 172.546 5.44867 1.63141 0
114 1 Si 172.66 8.83705 1.6317 0
115 1 Si 169.809 10.5402 1.63666 0
116 1 Si 175.543 4.01616 1.62277 0
117 1 Si 176.07 0.726193 1.63757 0
118 1 Si 173.54 176.295 1.63981 0
119 1 Si 178.111 6.0193 1.63919 0
120 1 Si 178.39 9.26999 1.64293 0
121 1 Si 175.502 10.6998 1.63531 0
122 1 Si 180.923 4.59714 1.62897 0
123 1 Si 181.437 1.48668 1.62411 0
124 1 Si 179.074 176.943 1.62446 0
125 1 Si 183.72 6.08503 1.61838 0
126 1 Si 183.985 9.22286 1.63009 0
127 1 Si 181.232 10.9472 1.62442 0
128 1 Si 186.249 4.12528 1.60625 0
129 1 Si 184.651 1.30175 1.63476 0
130 1 Si 189.212 5.58175 1.64147 0
131 1 Si 189.682 8.89957 1.6184 0
132 1 Si 186.888 10.5285 1.60988 0
133 1 Si 191.674 3.4941 1.63724 0
134 1 Si 191.184 0.227889 1.61159 0
135 1 Si 188.863 175.548 1.61454 0
136 1 Si 185.653 175.904 1.62131 0
137 1 Si 194.771 4.57346 1.61426 0
138 1 Si 196.064 1.60193 1.62531 0
139 1 Si 194.167 176.634 1.61389 0
140 1 Si 196.584 7.37405 1.62708 0
141 1 Si 195.343 10.5159 1.62673 0
142 1 Si 192.021 11.302 1.64102 0
143 1 Si 200.984 3.73084 1.6356 0
144 1 Si 199.912 6.86456 1.63025 0
145 1 Si 199.158 1.02057 1.62603 0
146 1 Si 204.067 2.8036 1.61635 0
147 1 Si 1.99249 5.13557 1.59861 0
148 1 Si 202.219 9.30873 1.62811 0
149 1 Si 1.19943 8.44776 1.64139 0
150 1 Si 0.796391 177.322 1.61377 0
151 1 Si 203.088 174.85 1.6288 0
152 1 Si 199.979 175.454 1.6394 0
153 1 Si 4.37973 2.7976 1.6396 0
154 1 Si 3.4559 175.448 1.62604 0
155 1 Si 5.8915 177.449 1.65261 0
156 1 Si 101.587 10.4763 1.63902 0
157 1 Si 96.6154 6.86097 1.63602 0
158 1 Si 97.5875 3.77328 1.62283 0
159 1 Si 98.3383 9.67285 1.6075 0
160 1 Si 100.464 2.42344 1.62054 0
161 1 Si 201.089 12.4705 1.64254 0
162 1 Si 197.668 12.9262 1.62684 0
163 1 Si 3.53704 10.8531 1.62974 0
164 1 Si 6.5374 9.85773 1.6112 0
165 1 Si 5.90214 5.43952 1.56365 0
166 1 Si 107.52 14.5304 1.64803 0
167 1 Si 104.838 16.4149 1.63337 0
168 1 Si 102.213 14.064 1.63879 0
169 1 Si 113.058 14.9306 1.62168 0
170 1 Si 110.237 16.2777 1.61444 0
171 1 Si 118.428 14.7501 1.63815 0
172 1 Si 115.806 16.4334 1.64181 0
173 1 Si 123.958 14.2167 1.62268 0
174 1 Si 121.308 16.3156 1.63735 0
175 1 Si 130.103 13.9192 1.62834 0
176 1 Si 127.089 15.3608 1.61925 0
177 1 Si 135.983 14.4812 1.62774 0
178 1 Si 132.944 15.6349 1.61964 0
179 1 Si 141.328 14.8892 1.61951 0
180 1 Si 138.578 16.3855 1.61679 0
181 1 Si 144.342 15.7784 1.62582 0
182 1 Si 153.285 13.7176 1.63219 0
183 1 Si 150.325 15.074 1.61382 0
184 1 Si 158.713 14.1598 1.6179 0
185 1 Si 155.887 15.6204 1.62171 0
186 1 Si 164.296 14.5198 1.65664 0
187 1 Si 161.323 15.9802 1.61211 0
188 1 Si 170.047 13.8779 1.62236 0
189 1 Si 167.32 15.8097 1.61533 0
190 1 Si 175.933 13.9883 1.63356 0
191 1 Si 172.991 15.4081 1.63937 0
192 1 Si 181.663 14.2094 1.63607 0
193 1 Si 178.821 15.8023 1.6247 0
194 1 Si 187.2 13.7385 1.61229 0
195 1 Si 184.642 15.7547 1.63331 0
196 1 Si 190.393 14.3307 1.61134 0
197 1 Si 4.16448 14.0755 1.6289 0
198 1 Si 203.292 15.0637 1.62188 0
199 1 Si 2.0731 16.4614 1.62941 0
200 1 Si 190.721 17.7256 1.62929 0
201 1 Si 196.364 15.9553 1.61372 0
202 1 Si 193.937 18.2539 1.64421 0
203 1 Si 8.49158 12.2839 1.59793 0
204 1 Si 7.23754 15.1515 1.63913 0
205 1 Si 111.829 19.0142 1.63413 0
206 1 Si 105.213 20.0723 1.63435 0
207 1 Si 107.818 22.5909 1.60356 0
208 1 Si 110.977 21.9861 1.61343 0
209 1 Si 114.996 19.3924 1.61993 0
210 1 Si 136.024 46.3204 1.61743 0
211 1 Si 136.893 43.347 1.63292 0
212 1 Si 133.025 46.9558 1.59998 0
213 1 Si 131.779 41.6052 1.65402 0
214 1 Si 134.939 40.8296 1.62526 0
215 1 Si 130.834 44.7273 1.60151 0
216 1 Si 137.75 48.914 1.59504 0
217 1 Si 140.033 43.4373 1.62544 0
218 1 Si 141.955 46.037 1.61984 0
219 1 Si 140.911 49.1044 1.63242 0
220 1 Si 132.302 49.9906 1.59955 0
221 1 Si 135.32 50.927 1.6479 0
222 1 Si 121.423 19.7533 1.64061 0
223 1 Si 116.306 22.2729 1.64812 0
224 1 Si 119.561 22.7149 1.6306 0
225 1 Si 127.155 18.5517 1.62705 0
226 1 Si 124.548 20.4468 1.61793 0
227 1 Si 132.958 18.9231 1.62388 0
228 1 Si 129.944 20.1853 1.6254 0
229 1 Si 139.011 19.4927 1.62634 0
230 1 Si 135.877 20.4437 1.61255 0
231 1 Si 144.862 19.0499 1.63555 0
232 1 Si 142.041 20.8046 1.64046 0
233 1 Si 150.604 18.7695 1.63035 0
234 1 Si 147.794 20.7192 1.62236 0
235 1 Si 156.286 18.8331 1.6141 0
236 1 Si 153.555 20.7928 1.63316 0
237 1 Si 159.611 18.7856 1.63788 0
238 1 Si 167.657 19.0867 1.63751 0
239 1 Si 161.802 21.0925 1.62653 0
240 1 Si 164.997 20.936 1.61216 0
241 1 Si 173.412 18.6039 1.62518 0
242 1 Si 170.693 20.3197 1.63092 0
243 1 Si 179.228 19.1676 1.62522 0
244 1 Si 176.173 20.4278 1.63536 0
245 1 Si 185.113 19.0747 1.61366 0
246 1 Si 182.232 20.9198 1.61931 0
247 1 Si 188.309 20.3096 1.63108 0
248 1 Si 201.853 17.8639 1.62908 0
249 1 Si 198.77 17.9572 1.61983 0
250 1 Si 202.769 20.8799 1.63218 0
251 1 Si 1.27921 22.1905 1.61566 0
252 1 Si 3.28366 19.6536 1.60783 0
253 1 Si 102.204 21.5074 1.61981 0
254 1 Si 99.651 16.0652 1.62766 0
255 1 Si 99.8132 19.2888 1.62988 0
256 1 Si 194.754 21.4166 1.6053 0
257 1 Si 197.82 20.8816 1.60446 0
258 1 Si 109.232 25.8108 1.63174 0
259 1 Si 106.844 27.9986 1.63828 0
260 1 Si 103.59 27.1524 1.60818 0
261 1 Si 101.291 24.7498 1.64233 0
262 1 Si 113.541 23.9461 1.62013 0
263 1 Si 112.562 26.9966 1.61985 0
264 1 Si 125.565 23.4489 1.61051 0
265 1 Si 128.738 23.1594 1.62967 0
266 1 Si 120.603 26.0359 1.63501 0
267 1 Si 124.015 26.2409 1.63836 0
268 1 Si 136.334 23.5479 1.63355 0
269 1 Si 130.666 25.5991 1.61931 0
270 1 Si 133.729 25.2268 1.61026 0
271 1 Si 142.181 24.0573 1.6285 0
272 1 Si 139.141 25.1146 1.64498 0
273 1 Si 147.843 24.1919 1.62507 0
274 1 Si 144.885 25.9923 1.62854 0
275 1 Si 153.867 24.3706 1.62008 0
276 1 Si 150.782 25.9131 1.62192 0
277 1 Si 161.811 24.2322 1.60716 0
278 1 Si 156.729 26.6713 1.61284 0
279 1 Si 160.182 26.9218 1.6524 0
280 1 Si 164.946 24.0974 1.60514 0
281 1 Si 171.989 23.2624 1.61962 0
282 1 Si 167.259 26.191 1.61493 0
283 1 Si 170.395 25.9683 1.6222 0
284 1 Si 175.217 23.5428 1.62245 0
285 1 Si 182.6 24.3382 1.63411 0
286 1 Si 176.657 26.5279 1.63863 0
287 1 Si 179.98 26.509 1.64305 0
288 1 Si 188.58 23.8576 1.61937 0
289 1 Si 185.758 25.6853 1.61278 0
290 1 Si 194.094 24.5748 1.64719 0
291 1 Si 191.237 26.0506 1.63338 0
292 1 Si 200.269 22.7276 1.63427 0
293 1 Si 2.04947 25.3189 1.61291 0
294 1 Si 5.23382 25.0788 1.60899 0
295 1 Si 5.78719 21.8396 1.63366 0
296 1 Si 196.501 26.6856 1.62736 0
297 1 Si 199.501 25.7064 1.63903 0
298 1 Si 107.707 31.2109 1.59991 0
299 1 Si 104.672 31.9621 1.64242 0
300 1 Si 102.181 30.0454 1.62093 0
301 1 Si 115.037 29.5857 1.6334 0
302 1 Si 118.52 28.8928 1.63363 0
303 1 Si 126.793 28.1181 1.64427 0
304 1 Si 130.065 28.7019 1.61142 0
305 1 Si 150.587 29.2789 1.62683 0
306 1 Si 156.321 29.9678 1.62716 0
307 1 Si 153.321 31.2292 1.62689 0
308 1 Si 162.927 28.991 1.62836 0
309 1 Si 158.827 32.0806 1.63299 0
310 1 Si 162.041 32.0129 1.61478 0
311 1 Si 166.256 29.2111 1.60297 0
312 1 Si 171.628 28.9351 1.62173 0
313 1 Si 174.838 29.4451 1.63957 0
314 1 Si 186.265 28.9823 1.63635 0
315 1 Si 180.593 29.6601 1.62158 0
316 1 Si 183.577 30.6908 1.64177 0
317 1 Si 191.734 29.4567 1.63965 0
318 1 Si 188.937 30.9861 1.63657 0
319 1 Si 196.844 29.8709 1.64474 0
320 1 Si 194.29 31.749 1.63348 0
321 1 Si 201.585 27.9853 1.60629 0
322 1 Si 0.411653 28.0934 1.63589 0
323 1 Si 108.945 34.2959 1.63804 0
324 1 Si 114.26 33.0296 1.60786 0
325 1 Si 111.932 35.4886 1.63668 0
326 1 Si 120.374 31.6465 1.64503 0
327 1 Si 123.543 31.7872 1.56215 0
328 1 Si 126.899 31.204 1.63573 0
329 1 Si 169.077 30.9597 1.63989 0
330 1 Si 175.759 32.7485 1.62763 0
331 1 Si 178.888 32.357 1.63188 0
332 1 Si 199.919 30.6586 1.60698 0
333 1 Si 0.952229 31.297 1.62315 0
334 1 Si 3.9188 32.7437 1.63593 0
335 1 Si 7.24168 27.6457 1.61384 0
336 1 Si 6.76739 30.94 1.63319 0
337 1 Si 104.286 35.0307 1.61348 0
338 1 Si 106.887 36.8031 1.60266 0
339 1 Si 116.392 35.4998 1.62945 0
340 1 Si 119.461 34.7514 1.63217 0
341 1 Si 125.601 34.6508 1.6026 0
342 1 Si 128.651 33.8314 1.59336 0
343 1 Si 158.757 35.2671 1.61134 0
344 1 Si 163.684 34.7578 1.61837 0
345 1 Si 161.456 37.0301 1.62046 0
346 1 Si 169.444 34.2036 1.61856 0
347 1 Si 166.662 35.8119 1.63025 0
348 1 Si 171.815 36.4757 1.64127 0
349 1 Si 175.026 36.166 1.63322 0
350 1 Si 183.561 33.8398 1.63257 0
351 1 Si 180.611 35.0066 1.62013 0
352 1 Si 189.206 34.2961 1.62674 0
353 1 Si 186.217 35.5049 1.63129 0
354 1 Si 194.935 35.1521 1.63397 0
355 1 Si 191.815 36.4625 1.63288 0
356 1 Si 202.29 32.7627 1.6353 0
357 1 Si 201.528 35.8918 1.62229 0
358 1 Si 198.185 37.003 1.63972 0
359 1 Si 101.336 35.9455 1.64581 0
360 1 Si 99.1935 31.2617 1.61275 0
361 1 Si 98.6672 34.3828 1.61855 0
362 1 Si 115.595 38.6827 1.61572 0
363 1 Si 112.4 38.9034 1.60939 0
364 1 Si 11.22 5.50211 1.60953 0
365 1 Si 12.2613 8.38901 1.65457 0
366 1 Si 8.65505 3.69643 1.59708 0
367 1 Si 9.4997 9.56659 1.5568 0
368 1 Si 8.51951 6.60166 1.65776 0
369 1 Si 13.989 4.31694 1.6301 0
370 1 Si 16.4432 6.13044 1.60618 0
371 1 Si 15.33 9.05164 1.61977 0
372 1 Si 13.2899 1.39146 1.63723 0
373 1 Si 10.2454 1.12496 1.62696 0
374 1 Si 121.347 37.3655 1.63076 0
375 1 Si 124.497 37.5063 1.6245 0
376 1 Si 19.0695 4.34575 1.6132 0
377 1 Si 21.559 6.68676 1.63478 0
378 1 Si 20.4071 10.103 1.6061 0
379 1 Si 17.4054 11.4107 1.62263 0
380 1 Si 18.0365 1.01612 1.64171 0
381 1 Si 15.1007 176.536 1.60005 0
382 1 Si 24.9057 5.39192 1.61279 0
383 1 Si 26.1824 2.00686 1.63715 0
384 1 Si 20.6127 176.675 1.63845 0
385 1 Si 23.8661 177.284 1.62339 0
386 1 Si 130.98 36.0472 1.635 0
387 1 Si 39.6227 3.31702 1.61085 0
388 1 Si 42.7982 3.1183 1.61714 0
389 1 Si 38.761 6.41309 1.64305 0
390 1 Si 44.7103 5.59785 1.62763 0
391 1 Si 43.9818 8.69465 1.63526 0
392 1 Si 40.8262 8.97316 1.63856 0
393 1 Si 38.2931 0.370538 1.63446 0
394 1 Si 43.8641 0.148726 1.61686 0
395 1 Si 41.0712 176.188 1.62519 0
396 1 Si 32.808 5.14303 1.63986 0
397 1 Si 32.4039 1.77434 1.63106 0
398 1 Si 35.6113 6.88924 1.61185 0
399 1 Si 35.0489 177.218 1.63836 0
400 1 Si 48.9098 1.87751 1.64244 0
401 1 Si 47.7713 4.85431 1.62517 0
402 1 Si 46.9575 176.992 1.63041 0
403 1 Si 52.037 1.48039 1.6325 0
404 1 Si 53.6429 4.22658 1.63219 0
405 1 Si 49.4681 7.48958 1.62462 0
406 1 Si 52.5409 7.14539 1.62762 0
407 1 Si 53.3541 176.163 1.6314 0
408 1 Si 48.1667 173.995 1.61159 0
409 1 Si 51.4472 173.534 1.63082 0
410 1 Si 57.981 1.67561 1.61791 0
411 1 Si 56.7554 4.52623 1.63229 0
412 1 Si 56.503 176.503 1.6043 0
413 1 Si 61.0818 1.51692 1.62225 0
414 1 Si 62.6065 4.29422 1.64188 0
415 1 Si 58.234 7.3258 1.63275 0
416 1 Si 61.3546 7.23573 1.63478 0
417 1 Si 61.9024 176.031 1.61852 0
418 1 Si 58.943 174.487 1.60174 0
419 1 Si 66.8979 1.19638 1.6334 0
420 1 Si 65.7318 4.21186 1.64745 0
421 1 Si 65.1624 176.018 1.63394 0
422 1 Si 70.081 1.1884 1.64825 0
423 1 Si 71.3915 4.08848 1.64754 0
424 1 Si 70.0922 7.0036 1.6303 0
425 1 Si 67.0053 7.17834 1.64556 0
426 1 Si 71.9506 176.162 1.62522 0
427 1 Si 67.0012 173.361 1.62025 0
428 1 Si 70.2595 173.435 1.63222 0
429 1 Si 74.5009 4.29546 1.64517 0
430 1 Si 73.8836 7.50507 1.63163 0
431 1 Si 71.5855 9.82444 1.60937 0
432 1 Si 76.4744 1.66432 1.64079 0
433 1 Si 75.2558 176.273 1.63259 0
434 1 Si 80.3568 4.75945 1.65346 0
435 1 Si 78.4447 7.21746 1.58072 0
436 1 Si 79.7435 1.6859 1.63028 0
437 1 Si 76.2548 9.48482 1.63333 0
438 1 Si 83.2902 5.87555 1.64562 0
439 1 Si 83.3767 8.96136 1.64435 0
440 1 Si 80.4072 9.58238 1.60111 0
441 1 Si 86.0259 4.40308 1.62493 0
442 1 Si 85.4184 1.21996 1.61245 0
443 1 Si 82.4531 177.46 1.62205 0
444 1 Si 88.5177 6.51674 1.63947 0
445 1 Si 88.408 9.88553 1.62172 0
446 1 Si 85.5329 11.1653 1.64565 0
447 1 Si 91.1702 4.61243 1.63572 0
448 1 Si 90.8808 1.06852 1.63455 0
449 1 Si 87.949 176.861 1.61563 0
450 1 Si 93.3644 7.19166 1.61973 0
451 1 Si 93.0418 10.515 1.6269 0
452 1 Si 90.4205 12.553 1.62761 0
453 1 Si 96.3494 0.810206 1.60469 0
454 1 Si 93.6041 176.683 1.64193 0
455 1 Si 95.9585 11.9095 1.61698 0
456 1 Si 99.2659 177.054 1.60801 0
457 1 Si 11.6188 12.2786 1.60988 0
458 1 Si 0.366603 37.255 1.61862 0
459 1 Si 3.59867 36.0852 1.63089 0
460 1 Si 120.423 40.3622 1.61599 0
461 1 Si 117.431 41.3742 1.60032 0
462 1 Si 27.275 7.82885 1.62294 0
463 1 Si 21.2294 13.3634 1.63611 0
464 1 Si 26.6714 11.0324 1.62586 0
465 1 Si 24.3219 13.1111 1.63768 0
466 1 Si 30.5591 7.55247 1.62265 0
467 1 Si 29.3718 0.273501 1.6414 0
468 1 Si 126.65 39.8592 1.64079 0
469 1 Si 129.781 39.0929 1.63196 0
470 1 Si 32.2397 10.334 1.61699 0
471 1 Si 35.3476 10.0978 1.6233 0
472 1 Si 49.0046 10.6316 1.62147 0
473 1 Si 45.9467 11.2856 1.6348 0
474 1 Si 141.244 40.5207 1.60903 0
475 1 Si 53.8636 10.0143 1.61716 0
476 1 Si 56.9639 10.2566 1.6446 0
477 1 Si 161.857 40.2169 1.62558 0
478 1 Si 159.086 41.659 1.63843 0
479 1 Si 62.8334 10.0606 1.64649 0
480 1 Si 65.9531 10.2265 1.6389 0
481 1 Si 167.404 38.8465 1.60276 0
482 1 Si 163.755 42.8464 1.65662 0
483 1 Si 166.691 41.8571 1.61955 0
484 1 Si 79.0071 12.2621 1.61661 0
485 1 Si 75.9416 12.6548 1.59752 0
486 1 Si 170.5 39.3833 1.59027 0
487 1 Si 179.906 38.0915 1.629 0
488 1 Si 176.852 39.2188 1.61082 0
489 1 Si 185.497 38.576 1.63325 0
490 1 Si 182.547 39.8448 1.62443 0
491 1 Si 191.133 39.7688 1.63157 0
492 1 Si 187.943 40.5433 1.6226 0
493 1 Si 198.513 40.4141 1.62025 0
494 1 Si 201.449 41.9646 1.61282 0
495 1 Si 0.00946385 40.4858 1.63321 0
496 1 Si 193.059 42.5259 1.62828 0
497 1 Si 196.432 43.0152 1.62611 0
498 1 Si 16.5156 14.5157 1.63031 0
499 1 Si 13.4034 14.7648 1.62944 0
500 1 Si 106.353 39.9789 1.64749 0
501 1 Si 111.409 42.2206 1.63407 0
502 1 Si 108.157 42.6424 1.62255 0
503 1 Si 103.297 40.7988 1.62265 0
504 1 Si 100.79 38.9441 1.61631 0
505 1 Si 17.0294 17.7301 1.61428 0
506 1 Si 20.9574 16.7014 1.64774 0
507 1 Si 19.5712 19.7077 1.62736 0
508 1 Si 28.53 13.6522 1.63009 0
509 1 Si 31.5981 13.4427 1.62836 0
510 1 Si 125.393 42.776 1.61629 0
511 1 Si 122.268 42.8832 1.60424 0
512 1 Si 37.2122 12.6938 1.6266 0
513 1 Si 40.3532 12.146 1.6177 0
514 1 Si 51.703 12.3378 1.63096 0
515 1 Si 58.4706 13.0406 1.6053 0
516 1 Si 61.6137 12.9495 1.61081 0
517 1 Si 67.355 13.171 1.63046 0
518 1 Si 70.5145 12.9342 1.6471 0
519 1 Si 84.0642 13.9186 1.62928 0
520 1 Si 80.997 14.533 1.62631 0
521 1 Si 89.6992 16.0523 1.6249 0
522 1 Si 84.5161 16.9592 1.63274 0
523 1 Si 87.2506 18.3779 1.60154 0
524 1 Si 96.5299 15.1029 1.6264 0
525 1 Si 91.6308 18.7159 1.61658 0
526 1 Si 94.7315 17.7958 1.61972 0
527 1 Si 112.82 45.3294 1.61754 0
528 1 Si 118.034 44.6173 1.64579 0
529 1 Si 115.744 46.8439 1.62847 0
530 1 Si 12.222 17.6483 1.61817 0
531 1 Si 9.07459 17.8932 1.639 0
532 1 Si 125.775 45.9449 1.62404 0
533 1 Si 128.659 47.1545 1.64192 0
534 1 Si 24.8257 16.1822 1.57887 0
535 1 Si 27.8702 16.745 1.57612 0
536 1 Si 33.2164 16.16 1.62966 0
537 1 Si 36.3485 15.7456 1.6259 0
538 1 Si 155.207 45.0148 1.62985 0
539 1 Si 152.459 46.3672 1.63181 0
540 1 Si 159.844 44.7755 1.62434 0
541 1 Si 157.673 47.0009 1.63628 0
542 1 Si 42.2932 14.6949 1.63418 0
543 1 Si 45.4448 14.4563 1.63179 0
544 1 Si 162.831 45.9315 1.60639 0
545 1 Si 52.4842 15.4397 1.61911 0
546 1 Si 58.0304 16.1698 1.63517 0
547 1 Si 55.1198 17.2289 1.61896 0
548 1 Si 169.753 42.4534 1.63434 0
549 1 Si 176.978 42.8034 1.63205 0
550 1 Si 171.176 45.2567 1.64304 0
551 1 Si 174.45 45.0262 1.60446 0
552 1 Si 62.9113 15.8522 1.62779 0
553 1 Si 66.0359 16.1725 1.6213 0
554 1 Si 182.679 43.0253 1.62145 0
555 1 Si 179.858 44.7394 1.63113 0
556 1 Si 185.935 43.1044 1.62191 0
557 1 Si 187.753 45.6314 1.63365 0
558 1 Si 190.991 45.0877 1.62852 0
559 1 Si 71.7029 16.0147 1.61252 0
560 1 Si 74.8388 15.6652 1.63686 0
561 1 Si 201.562 45.3013 1.62482 0
562 1 Si 198.308 45.8976 1.62674 0
563 1 Si 2.54368 42.4174 1.63111 0
564 1 Si 5.49165 41.3118 1.63053 0
565 1 Si 6.28508 38.1777 1.63106 0
566 1 Si 106.598 45.5435 1.63056 0
567 1 Si 111.333 48.248 1.63433 0
568 1 Si 108.148 48.3414 1.64877 0
569 1 Si 103.387 45.999 1.63398 0
570 1 Si 101.64 43.4456 1.63871 0
571 1 Si 121.06 45.8245 1.60565 0
572 1 Si 14.5709 19.7995 1.6135 0
573 1 Si 123.389 48.1223 1.61596 0
574 1 Si 23.2498 18.8505 1.59282 0
575 1 Si 27.3848 19.8683 1.65022 0
576 1 Si 32.4604 19.2034 1.60766 0
577 1 Si 30.1023 21.2642 1.6483 0
578 1 Si 38.2391 18.2814 1.64099 0
579 1 Si 41.2852 17.7065 1.62969 0
580 1 Si 152.258 49.4518 1.61788 0
581 1 Si 149.006 49.2575 1.62149 0
582 1 Si 47.2573 17.1339 1.65018 0
583 1 Si 50.3686 17.8041 1.61256 0
584 1 Si 60.6126 18.0097 1.61697 0
585 1 Si 67.1424 19.2825 1.61941 0
586 1 Si 70.5453 19.1556 1.62765 0
587 1 Si 79.5729 17.2971 1.64344 0
588 1 Si 76.6554 18.3393 1.63016 0
589 1 Si 82.1207 18.9538 1.63243 0
590 1 Si 7.05956 44.0614 1.62551 0
591 1 Si 113.004 51.0805 1.63862 0
592 1 Si 116.124 50.165 1.62846 0
593 1 Si 85.4502 21.2529 1.63042 0
594 1 Si 90.5049 21.8698 1.62877 0
595 1 Si 87.6041 23.5527 1.62968 0
596 1 Si 96.8008 20.2335 1.62643 0
597 1 Si 129.166 50.4091 1.62291 0
598 1 Si 8.94331 21.2025 1.62846 0
599 1 Si 14.671 23.0875 1.63494 0
600 1 Si 11.3434 23.6457 1.636 0
601 1 Si 158.03 50.2415 1.63641 0
602 1 Si 154.909 51.3654 1.61445 0
603 1 Si 24.7451 21.578 1.61336 0
604 1 Si 163.622 49.1309 1.6298 0
605 1 Si 161.216 51.4717 1.61794 0
606 1 Si 34.5178 21.5316 1.61841 0
607 1 Si 37.5783 21.3755 1.62949 0
608 1 Si 169.418 48.0414 1.59905 0
609 1 Si 166.798 50.0425 1.62807 0
610 1 Si 174.728 48.265 1.61708 0
611 1 Si 171.986 49.9045 1.60619 0
612 1 Si 42.9172 20.3749 1.63297 0
613 1 Si 45.9879 20.0087 1.63462 0
614 1 Si 180.1 48.1494 1.62302 0
615 1 Si 177.373 50.1056 1.62651 0
616 1 Si 185.931 48.3521 1.63237 0
617 1 Si 182.979 49.8541 1.63514 0
618 1 Si 51.9342 20.6447 1.64801 0
619 1 Si 55.1304 20.4336 1.60957 0
620 1 Si 191.686 48.1342 1.63652 0
621 1 Si 188.84 49.5696 1.63655 0
622 1 Si 197.516 49.1833 1.6506 0
623 1 Si 194.27 49.9419 1.62867 0
624 1 Si 61.087 21.1626 1.61609 0
625 1 Si 64.5133 21.5696 1.6315 0
626 1 Si 72.854 21.6849 1.64399 0
627 1 Si 76.2796 21.6027 1.62992 0
628 1 Si 106.534 51.1434 1.62961 0
629 1 Si 111.635 54.1541 1.63549 0
630 1 Si 108.308 53.9352 1.62205 0
631 1 Si 103.261 51.0082 1.6274 0
632 1 Si 101.324 48.4528 1.6356 0
633 1 Si 118.529 52.4912 1.619 0
634 1 Si 124.239 51.375 1.631 0
635 1 Si 121.678 53.2838 1.62941 0
636 1 Si 20.2757 23.1113 1.64247 0
637 1 Si 17.5743 25.158 1.62897 0
638 1 Si 141.958 52.2105 1.63446 0
639 1 Si 148.149 52.3236 1.63225 0
640 1 Si 145.022 53.3071 1.62645 0
641 1 Si 30.2257 24.3634 1.57916 0
642 1 Si 33.3111 24.3362 1.5888 0
643 1 Si 39.1195 24.1576 1.64847 0
644 1 Si 42.1522 23.44 1.62559 0
645 1 Si 47.2406 22.8634 1.60987 0
646 1 Si 50.3097 23.3631 1.63303 0
647 1 Si 57.8749 22.2699 1.64045 0
648 1 Si 71.3868 24.5805 1.62556 0
649 1 Si 65.2389 24.7332 1.64108 0
650 1 Si 68.3523 25.612 1.59799 0
651 1 Si 82.2144 22.0609 1.60179 0
652 1 Si 79.2667 23.6293 1.62887 0
653 1 Si 118.474 55.6911 1.6078 0
654 1 Si 113.14 57.2566 1.63085 0
655 1 Si 116.348 58.0032 1.62415 0
656 1 Si 127.178 53.0766 1.62193 0
657 1 Si 95.8724 23.2322 1.62882 0
658 1 Si 92.8034 24.0295 1.61294 0
659 1 Si 98.0144 25.5838 1.61515 0
660 1 Si 136.353 53.8618 1.63526 0
661 1 Si 139.559 54.4527 1.63664 0
662 1 Si 10.4236 26.8378 1.62017 0
663 1 Si 154.058 54.535 1.61161 0
664 1 Si 150.679 54.5062 1.64028 0
665 1 Si 162.433 54.6768 1.62934 0
666 1 Si 156.576 56.857 1.62968 0
667 1 Si 160.004 56.9346 1.62453 0
668 1 Si 23.4726 24.505 1.62517 0
669 1 Si 167.923 53.1886 1.62826 0
670 1 Si 165.785 55.8118 1.63119 0
671 1 Si 25.6839 27.2361 1.6348 0
672 1 Si 29.0007 27.2368 1.62446 0
673 1 Si 171.267 53.0706 1.61817 0
674 1 Si 34.4655 27.1741 1.60822 0
675 1 Si 37.5928 26.9465 1.61409 0
676 1 Si 176.961 53.4582 1.64155 0
677 1 Si 173.888 55.1325 1.63896 0
678 1 Si 182.952 53.2613 1.6334 0
679 1 Si 179.946 55.0456 1.63431 0
680 1 Si 44.8988 24.9462 1.62581 0
681 1 Si 188.935 52.6506 1.63127 0
682 1 Si 186.172 54.4084 1.63354 0
683 1 Si 51.1497 26.4166 1.63084 0
684 1 Si 57.1055 25.4031 1.63728 0
685 1 Si 54.2678 26.9765 1.60603 0
686 1 Si 192.201 52.4818 1.63984 0
687 1 Si 80.3009 26.9846 1.6358 0
688 1 Si 72.1406 27.6438 1.6349 0
689 1 Si 77.8487 29.1824 1.62415 0
690 1 Si 74.68 29.4397 1.64079 0
691 1 Si 193.322 55.3684 1.61781 0
692 1 Si 196.392 56.1379 1.60081 0
693 1 Si 86.5123 26.6836 1.61237 0
694 1 Si 89.2427 28.5088 1.62362 0
695 1 Si 92.2531 27.1695 1.60299 0
696 1 Si 106.442 56.5419 1.61884 0
697 1 Si 103.272 56.1066 1.61823 0
698 1 Si 101.385 53.5762 1.63336 0
699 1 Si 121.557 56.5204 1.59465 0
700 1 Si 18.1513 28.8245 1.64245 0
701 1 Si 12.0353 29.679 1.62205 0
702 1 Si 15.163 30.6786 1.62667 0
703 1 Si 134.004 56.0234 1.59063 0
704 1 Si 127.89 56.5919 1.63921 0
705 1 Si 131.086 57.4157 1.63831 0
706 1 Si 21.4235 30.7122 1.61472 0
707 1 Si 24.8377 30.4092 1.62194 0
708 1 Si 139.579 57.6469 1.63686 0
709 1 Si 136.446 58.065 1.62062 0
710 1 Si 145.663 56.373 1.58539 0
711 1 Si 148.747 57.0041 1.5927 0
712 1 Si 31.8159 28.9199 1.63835 0
713 1 Si 45.7966 27.9423 1.6571 0
714 1 Si 37.6713 30.1198 1.5652 0
715 1 Si 40.6409 30.9005 1.59265 0
716 1 Si 43.3167 29.7241 1.55648 0
717 1 Si 48.8611 28.6844 1.62506 0
718 1 Si 62.8852 27.0717 1.63517 0
719 1 Si 59.6215 27.4171 1.6198 0
720 1 Si 64.0175 30.0631 1.60836 0
721 1 Si 69.1841 28.6835 1.59881 0
722 1 Si 67.0598 31.0273 1.64117 0
723 1 Si 83.5925 28.4014 1.62223 0
724 1 Si 106.78 59.754 1.63757 0
725 1 Si 112.163 60.4459 1.61893 0
726 1 Si 109.177 61.8811 1.63857 0
727 1 Si 88.2835 31.6045 1.61827 0
728 1 Si 84.9359 31.5873 1.62636 0
729 1 Si 95.4838 27.7587 1.63947 0
730 1 Si 122.736 59.6159 1.62936 0
731 1 Si 126.014 59.6201 1.62716 0
732 1 Si 95.9831 30.8799 1.63794 0
733 1 Si 144.786 59.3821 1.62996 0
734 1 Si 141.666 60.1947 1.64069 0
735 1 Si 155.812 60.0281 1.62165 0
736 1 Si 147.922 60.0501 1.6333 0
737 1 Si 149.915 62.5567 1.6381 0
738 1 Si 153.237 62.0307 1.59931 0
739 1 Si 9.82847 32.1257 1.62141 0
740 1 Si 161.333 59.9623 1.62453 0
741 1 Si 158.621 61.6732 1.60955 0
742 1 Si 32.5251 32.0196 1.64259 0
743 1 Si 35.6256 32.5679 1.59745 0
744 1 Si 166.999 59.1864 1.62658 0
745 1 Si 164.359 61.3519 1.62615 0
746 1 Si 57.9426 30.2046 1.62969 0
747 1 Si 54.7588 30.1426 1.6127 0
748 1 Si 173.361 58.5657 1.62422 0
749 1 Si 170.301 60.6011 1.6313 0
750 1 Si 62.2556 32.7417 1.62277 0
751 1 Si 59.0831 33.1693 1.62777 0
752 1 Si 179.566 58.4384 1.63036 0
753 1 Si 176.464 59.9967 1.62041 0
754 1 Si 187.672 57.3367 1.63575 0
755 1 Si 182.398 60.2903 1.61919 0
756 1 Si 185.687 59.8968 1.62763 0
757 1 Si 77.5246 32.3595 1.5821 0
758 1 Si 74.356 32.5586 1.59419 0
759 1 Si 93.7188 33.3092 1.62752 0
760 1 Si 90.4598 34.1273 1.64035 0
761 1 Si 190.988 57.5744 1.60706 0
762 1 Si 196.586 59.2901 1.60216 0
763 1 Si 193.407 59.6885 1.64595 0
764 1 Si 95.7619 35.7516 1.64162 0
765 1 Si 14.3046 33.9271 1.6227 0
766 1 Si 11.1641 35.1043 1.63503 0
767 1 Si 202.29 60.0147 1.61602 0
768 1 Si 199.246 61.1099 1.61493 0
769 1 Si 21.9816 33.9967 1.6223 0
770 1 Si 19.7135 36.2133 1.63461 0
771 1 Si 16.4775 36.2567 1.64337 0
772 1 Si 103.958 61.155 1.64454 0
773 1 Si 101.85 58.8595 1.63574 0
774 1 Si 27.0505 33.0916 1.61144 0
775 1 Si 24.9286 35.5331 1.62941 0
776 1 Si 117.555 61.0842 1.6232 0
777 1 Si 114.693 62.5798 1.62427 0
778 1 Si 30.2704 34.3278 1.63177 0
779 1 Si 0.908097 61.6605 1.62534 0
780 1 Si 3.90189 59.7843 1.63076 0
781 1 Si 131.901 60.5403 1.62127 0
782 1 Si 135.087 60.824 1.6266 0
783 1 Si 38.5437 32.9537 1.54451 0
784 1 Si 43.0612 33.0588 1.57486 0
785 1 Si 40.4126 35.2779 1.56527 0
786 1 Si 120.679 62.3669 1.6268 0
787 1 Si 49.291 31.8425 1.62256 0
788 1 Si 52.5223 32.4973 1.6212 0
789 1 Si 67.2367 34.2192 1.61779 0
790 1 Si 64.1768 35.2459 1.62214 0
791 1 Si 102.836 64.0306 1.57725 0
792 1 Si 99.7281 64.0147 1.60166 0
793 1 Si 98.757 58.8839 1.64448 0
794 1 Si 97.6944 61.7642 1.61446 0
795 1 Si 108.479 65.1754 1.61307 0
796 1 Si 106.411 67.8738 1.60537 0
797 1 Si 101.98 67.0116 1.59163 0
798 1 Si 103.494 69.6266 1.58004 0
799 1 Si 83.8381 34.7685 1.61855 0
800 1 Si 78.1107 35.4723 1.64742 0
801 1 Si 81.0866 36.5851 1.63278 0
802 1 Si 114.358 65.8275 1.63014 0
803 1 Si 111.304 66.6908 1.6086 0
804 1 Si 130.033 63.1014 1.6391 0
805 1 Si 126.816 62.9464 1.61623 0
806 1 Si 140.498 63.2796 1.6271 0
807 1 Si 137.249 63.1329 1.62618 0
808 1 Si 9.61914 38.1798 1.64597 0
809 1 Si 148.283 65.4855 1.60031 0
810 1 Si 141.858 66.3354 1.63653 0
811 1 Si 145.125 67.3103 1.6285 0
812 1 Si 154.911 64.7856 1.57777 0
813 1 Si 151.649 65.5973 1.56581 0
814 1 Si 158.297 64.8705 1.62655 0
815 1 Si 164.31 64.753 1.62822 0
816 1 Si 161.309 66.4966 1.64015 0
817 1 Si 170.448 64.2102 1.62936 0
818 1 Si 167.367 66.2711 1.62552 0
819 1 Si 46.3914 33.4796 1.64109 0
820 1 Si 176.326 63.2889 1.62067 0
821 1 Si 173.785 65.4422 1.62785 0
822 1 Si 182.174 63.5695 1.62669 0
823 1 Si 179.215 64.8163 1.61527 0
824 1 Si 53.6934 35.5842 1.61855 0
825 1 Si 57.1941 35.9239 1.63222 0
826 1 Si 187.191 62.7632 1.61118 0
827 1 Si 185.054 65.1409 1.60547 0
828 1 Si 69.7328 36.2 1.62179 0
829 1 Si 72.8625 35.3487 1.62234 0
830 1 Si 193.104 62.7657 1.62556 0
831 1 Si 190.157 63.9396 1.6238 0
832 1 Si 89.1198 37.2517 1.62373 0
833 1 Si 85.8933 37.3049 1.61813 0
834 1 Si 198.878 64.2925 1.61741 0
835 1 Si 195.715 64.61 1.63621 0
836 1 Si 95.153 38.9253 1.62172 0
837 1 Si 89.8437 40.54 1.62748 0
838 1 Si 92.9284 41.3113 1.62646 0
839 1 Si 0.155247 64.9836 1.61795 0
840 1 Si 201.419 66.3298 1.61516 0
841 1 Si 97.9793 40.296 1.62773 0
842 1 Si 20.9107 39.1774 1.59314 0
843 1 Si 15.497 39.2697 1.58636 0
844 1 Si 18.2489 40.6762 1.60158 0
845 1 Si 121.665 65.8161 1.63004 0
846 1 Si 116.047 68.6942 1.63585 0
847 1 Si 119.422 68.7671 1.6298 0
848 1 Si 26.0018 38.6998 1.62806 0
849 1 Si 21.9864 42.2216 1.6338 0
850 1 Si 25.0885 41.8753 1.62751 0
851 1 Si 31.5392 37.4891 1.62646 0
852 1 Si 29.0643 39.6432 1.62049 0
853 1 Si 131.954 65.586 1.61668 0
854 1 Si 135.1 65.3878 1.63022 0
855 1 Si 37.866 37.3385 1.6288 0
856 1 Si 34.6911 38.8051 1.64013 0
857 1 Si 47.3618 36.5283 1.63683 0
858 1 Si 40.9144 38.5544 1.60617 0
859 1 Si 44.236 37.9083 1.6135 0
860 1 Si 2.05875 67.6714 1.62831 0