
15336 atoms
0 bonds
0 angles
0 dihedrals
0 impropers

2 atom types
0 bond types
0 angle types
0 dihedral types
0 improper types

0 203.01048662455867 xlo xhi
0 176.0215609172794 ylo yhi
-100 100 zlo zhi

Atoms

1 1 1 0 132.90166885655017 60.026807186537184 1.65
2 1 1 0 131.09067307379817 63.40270506644026 1.65
3 1 1 0 131.25061942170785 57.57697756722987 1.65
4 1 1 0 128.16768258147724 58.785231482441446 1.65
5 1 1 0 126.13359711775261 61.458879160049506 1.65
6 1 1 0 127.40553817523126 63.626523124741006 1.65
7 1 1 0 135.3831882282932 59.99013386213551 1.65
8 1 1 0 136.46678303895467 63.186422812710155 1.65
9 1 1 0 138.2528934386049 59.39517556984664 1.65
10 1 1 0 139.33648824926638 62.59146452042129 1.65
11 1 1 0 133.7441175120406 65.19175388590656 1.65
12 1 1 0 184.23891068025694 42.97406578387976 1.65
13 1 1 0 181.10859339893952 42.41340144751618 1.65
14 1 1 0 187.4097202033165 41.67181034940855 1.65
15 1 1 0 182.1865044148123 36.40759214411821 1.65
16 1 1 0 180.052825168955 39.415229399371064 1.65
17 1 1 0 185.51274322450968 36.292925296934804 1.65
18 1 1 0 188.00659626513888 38.92885043526772 1.65
19 1 1 0 184.7987653959075 46.286955860039235 1.65
20 1 1 0 179.6109551740911 45.92556085383785 1.65
21 1 1 0 182.27779384707736 48.302422872746995 1.65
22 1 1 0 189.9181905570833 44.1052556330959 1.65
23 1 1 0 187.95749694358307 46.853829768924975 1.65
24 1 1 0 140.51001230826517 49.42638494136543 1.65
25 1 1 0 137.77286124464686 47.693169481549546 1.65
26 1 1 0 143.6197596942161 47.877963854209945 1.65
27 1 1 0 140.76595237233772 42.78092893692862 1.65
28 1 1 0 137.87999074445915 44.3468090846606 1.65
29 1 1 0 143.7685702584764 44.578868246662076 1.65
30 1 1 0 140.31601498657975 52.708474641350364 1.65
31 1 1 0 134.66008842211502 49.30882165687589 1.65
32 1 1 0 134.56576206688996 52.80274991445085 1.65
33 1 1 0 137.4845375677364 54.46918743910943 1.65
34 1 1 0 146.39264989677363 49.840351251399646 1.65
35 1 1 0 145.9811230416632 53.1728497162598 1.65
36 1 1 0 143.01423551742025 54.49255201905503 1.65
37 1 1 0 107.04804547069038 6.045014239706617 1.65
38 1 1 0 104.03564792497612 7.039196920325184 1.65
39 1 1 0 109.36598795860094 7.925761630965346 1.65
40 1 1 0 109.11478817044967 10.927159934401109 1.65
41 1 1 0 106.1031134377256 12.205913437475925 1.65
42 1 1 0 103.3419156801626 10.198697814658727 1.65
43 1 1 0 107.49233780493155 2.7844885224885685 1.65
44 1 1 0 102.04589152420773 4.6228842847428275 1.65
45 1 1 0 104.28884768370519 1.8337952333788836 1.65
46 1 1 0 112.46886314483127 6.915561878835725 1.65
47 1 1 0 112.98838036059821 4.0618919476235575 1.65
48 1 1 0 110.32979750860905 1.81156598253513 1.65
49 1 1 0 118.47472346776016 5.160120359633407 1.65
50 1 1 0 121.57787440421818 4.290415011590561 1.65
51 1 1 0 117.7158096874565 8.55391327345214 1.65
52 1 1 0 124.24194118762287 6.560340297449026 1.65
53 1 1 0 123.63566406033021 9.515646114689071 1.65
54 1 1 0 120.21268349662185 10.63951374264934 1.65
55 1 1 0 115.97039912139634 3.0445864130983775 1.65
56 1 1 0 122.41535122655658 1.2939125486252694 1.65
57 1 1 0 115.11357449399972 175.72922971136714 1.65
58 1 1 0 116.80424917487395 174.1975364604876 1.65
59 1 1 0 120.2599134373331 174.9659161398045 1.65
60 1 1 0 114.69196812532574 9.292049258129278 1.65
61 1 1 0 127.85295863886871 5.57401781316996 1.65
62 1 1 0 128.46053606969386 2.5434429866802173 1.65
63 1 1 0 125.68699544078642 0.5332630079939906 1.65
64 1 1 0 130.01421024080625 8.04099108787177 1.65
65 1 1 0 127.13870378600164 10.684949518076515 1.65
66 1 1 0 133.08890764515596 8.26275385442479 1.65
67 1 1 0 135.4192975585314 6.015116051031302 1.65
68 1 1 0 135.23388685848138 2.8943867404603285 1.65
69 1 1 0 131.0095348325552 175.95851772204762 1.65
70 1 1 0 133.29124410602975 0.06856508724000232 1.65
71 1 1 0 147.81378665568218 4.905346098353352 1.65
72 1 1 0 146.0385060500304 8.445327160529725 1.65
73 1 1 0 151.11260077815228 5.711870182128248 1.65
74 1 1 0 151.61926811904735 9.258307649193558 1.65
75 1 1 0 148.6550619544307 11.10236704173988 1.65
76 1 1 0 146.91880167380066 1.9920514382325116 1.65
77 1 1 0 141.12354068374813 6.060074743848106 1.65
78 1 1 0 141.14418580212993 2.4608552123414875 1.65
79 1 1 0 143.39191251021293 8.869630711165012 1.65
80 1 1 0 143.68071045987938 0.7705879194112399 1.65
81 1 1 0 153.73684665682075 3.7602792834926007 1.65
82 1 1 0 153.64042812285516 0.5336898439303743 1.65
83 1 1 0 148.65700952879652 174.5057090797252 1.65
84 1 1 0 151.25664432816293 173.93488350786382 1.65
85 1 1 0 156.80284910731055 5.239704550590979 1.65
86 1 1 0 157.32759417534632 8.40018002708247 1.65
87 1 1 0 154.76825906575155 10.467192227049402 1.65
88 1 1 0 159.41360090881835 3.3925953417541983 1.65
89 1 1 0 159.3367596722069 0.25565037306334815 1.65
90 1 1 0 156.62958933673352 174.8977310596173 1.65
91 1 1 0 162.33378013993024 4.622801236637488 1.65
92 1 1 0 162.7931447939982 7.658986964891631 1.65
93 1 1 0 160.3977106309221 9.589256546499833 1.65
94 1 1 0 164.74755764968512 2.5937873984451953 1.65
95 1 1 0 162.80443654626876 175.72576115583442 1.65
96 1 1 0 167.6650576008705 3.776461450892284 1.65
97 1 1 0 168.26199183795424 7.036725407935597 1.65
98 1 1 0 165.80385654083682 8.890237083742651 1.65
99 1 1 0 170.26360924805164 2.0855501157545233 1.65
100 1 1 0 169.89056491792437 174.93699877929805 1.65
101 1 1 0 163.5587494701977 173.78114820094933 1.65
102 1 1 0 166.91372123785013 173.30004216204628 1.65
103 1 1 0 173.02746053937295 4.839188481732408 1.65
104 1 1 0 171.57334077222552 8.008707744521864 1.65
105 1 1 0 177.00495143336715 0.5029400249441127 1.65
106 1 1 0 175.92351773479112 4.2420100110540515 1.65
107 1 1 0 182.92994245780798 3.773310640497901 1.65
108 1 1 0 181.3604551862649 6.24346603111907 1.65
109 1 1 0 180.5384410911778 175.82675658260356 1.65
110 1 1 0 183.1439429774076 1.528465731794487 1.65
111 1 1 0 178.75376333514401 7.359259153759632 1.65
112 1 1 0 175.38942484351287 173.64427281929673 1.65
113 1 1 0 172.4084928749016 173.04066727002717 1.65
114 1 1 0 185.65258683626388 5.354182999400438 1.65
115 1 1 0 184.08309956472078 7.824338390021607 1.65
116 1 1 0 177.01111233072348 170.12406522109075 1.65
117 1 1 0 179.455919017722 169.7093870905608 1.65
118 1 1 0 181.36772118832204 172.5318503291468 1.65
119 1 1 0 188.95473829185883 1.751032424695262 1.65
120 1 1 0 188.41714925869377 4.853656071325098 1.65
121 1 1 0 186.40417638902852 0.006714444067191128 1.65
122 1 1 0 191.71257534105516 0.7678874283309169 1.65
123 1 1 0 194.34146583680575 2.5873189707878197 1.65
124 1 1 0 193.9604969707248 5.685898409138954 1.65
125 1 1 0 190.79401744180916 6.969090513311894 1.65
126 1 1 0 192.01705017267693 173.71079813282628 1.65
127 1 1 0 189.4937763631715 171.70684447640835 1.65
128 1 1 0 186.6387396287194 173.0411767085643 1.65
129 1 1 0 197.59399049712655 1.1598644734932941 1.65
130 1 1 0 200.15341812164232 2.9318185126223577 1.65
131 1 1 0 199.57822501689736 6.1674482093386604 1.65
132 1 1 0 196.63782852630067 7.494073608560725 1.65
133 1 1 0 197.7822729602525 174.38996500839238 1.65
134 1 1 0 194.83422313155347 172.7387692929029 1.65
135 1 1 0 0.36808278126173377 2.109708752985483 1.65
136 1 1 0 1.2600793278683113 175.2279047740449 1.65
137 1 1 0 199.9547523993816 171.95095861418173 1.65
138 1 1 0 202.4039395784984 172.08412472105954 1.65
139 1 1 0 1.7907478408218935 5.3463601019393945 1.65
140 1 1 0 202.36594184744737 7.832386507874503 1.65
141 1 1 0 4.595782570977097 5.57574236849417 1.65
142 1 1 0 6.987436289775464 2.87146775321601 1.65
143 1 1 0 6.678529155561038 175.86485880086937 1.65
144 1 1 0 4.13662824845541 174.2459008421092 1.65
145 1 1 0 112.55162687140212 11.83802796722199 1.65
146 1 1 0 113.08904643053448 14.217585070749863 1.65
147 1 1 0 119.61210736636167 13.774021823810937 1.65
148 1 1 0 116.39017436692204 15.234078966090268 1.65
149 1 1 0 135.43619499589664 11.513293536758395 1.65
150 1 1 0 127.46592122715563 12.675457208790105 1.65
151 1 1 0 130.91713668417123 13.882860163830413 1.65
152 1 1 0 134.55264277929737 13.787334037452647 1.65
153 1 1 0 138.42662584614595 7.5704350531302005 1.65
154 1 1 0 138.55150100908557 10.912986651190783 1.65
155 1 1 0 138.26186026447772 0.8504862110526159 1.65
156 1 1 0 141.5830238045412 12.05320981822991 1.65
157 1 1 0 172.06281074375116 10.938061187748689 1.65
158 1 1 0 165.94740499291797 12.086610039489672 1.65
159 1 1 0 168.89501026156103 13.162451806909443 1.65
160 1 1 0 178.33036272583757 11.067036187071432 1.65
161 1 1 0 175.17593044419255 12.369470877673091 1.65
162 1 1 0 186.01036250713327 10.251702978447566 1.65
163 1 1 0 181.36384892650548 13.285618764331234 1.65
164 1 1 0 184.95160107383504 12.6591549491268 1.65
165 1 1 0 189.95671796179172 9.896982029813193 1.65
166 1 1 0 195.99340670070117 10.707431999825065 1.65
167 1 1 0 192.47877566510786 11.827148316904593 1.65
168 1 1 0 5.899975156555034 8.405384424073674 1.65
169 1 1 0 10.801656252074814 3.043189219998341 1.65
170 1 1 0 11.846445031199236 5.027591017895384 1.65
171 1 1 0 9.336417654477824 7.685511606692556 1.65
172 1 1 0 106.6225235980696 15.302524413334014 1.65
173 1 1 0 110.17161788992604 16.40332801378707 1.65
174 1 1 0 125.01023292587324 14.994380988613164 1.65
175 1 1 0 122.0868580887527 15.769145745342458 1.65
176 1 1 0 130.03957967271745 16.46014825020162 1.65
177 1 1 0 126.14587232428454 18.315443501740116 1.65
178 1 1 0 127.72400361411316 18.57380780828826 1.65
179 1 1 0 148.4740635541402 14.385002789452951 1.65
180 1 1 0 142.27562181952902 15.296355028968996 1.65
181 1 1 0 145.4012578959299 16.459466545812077 1.65
182 1 1 0 156.43515356666742 13.42171551340521 1.65
183 1 1 0 151.3096846552369 15.91762236770113 1.65
184 1 1 0 154.95864590789375 15.33197911392386 1.65
185 1 1 0 162.40753894980813 12.53827169344618 1.65
186 1 1 0 161.00431699514826 14.303718460384625 1.65
187 1 1 0 202.1249334676885 10.941133907891981 1.65
188 1 1 0 198.692794811539 12.489554000620478 1.65
189 1 1 0 1.7751645154071856 12.838392552408804 1.65
190 1 1 0 4.8000436692859365 11.492106827616471 1.65
191 1 1 0 104.4283163309575 17.128533642652464 1.65
192 1 1 0 101.0233521141194 16.269582944912916 1.65
193 1 1 0 100.05938990837002 10.68734075512956 1.65
194 1 1 0 98.97249967713223 13.396437699102204 1.65
195 1 1 0 116.20077092891238 18.361357238527592 1.65
196 1 1 0 110.86488501933462 19.642019181482443 1.65
197 1 1 0 113.5929101219334 20.58355451088256 1.65
198 1 1 0 121.43100840518946 19.179869441694507 1.65
199 1 1 0 118.76685424478876 20.312023792600314 1.65
200 1 1 0 136.5903237634159 16.932994638883414 1.65
201 1 1 0 131.43263063126173 18.956859209955116 1.65
202 1 1 0 134.34786862683404 19.525231725014677 1.65
203 1 1 0 139.7145410638073 17.88009746647635 1.65
204 1 1 0 170.63379002909298 16.296836622445902 1.65
205 1 1 0 162.46847564525666 17.23802635968395 1.65
206 1 1 0 165.4258564724991 18.600960664240308 1.65
207 1 1 0 169.24034363303247 18.34937592652094 1.65
208 1 1 0 174.7477931574869 16.01048128427498 1.65
209 1 1 0 181.1540151597375 16.57302257923882 1.65
210 1 1 0 177.69239167236395 17.995450408580908 1.65
211 1 1 0 187.84339976723882 15.068850442306976 1.65
212 1 1 0 183.98746438806353 18.899277548465104 1.65
213 1 1 0 187.0890968482353 18.021569226737697 1.65
214 1 1 0 191.4242189038532 14.591564758719144 1.65
215 1 1 0 198.1626335795143 15.887904732260457 1.65
216 1 1 0 194.40868870742182 16.870199173279595 1.65
217 1 1 0 123.90273493030217 21.024059819585542 1.65
218 1 1 0 129.11705457265745 21.07051876804176 1.65
219 1 1 0 145.7371242947212 20.29951631121473 1.65
220 1 1 0 140.36341481581164 21.487863276881786 1.65
221 1 1 0 143.26036197032468 22.74417060477709 1.65
222 1 1 0 151.10265484811114 19.04758196623342 1.65
223 1 1 0 148.60290014580573 21.355012153387896 1.65
224 1 1 0 156.6273063955339 18.13697297721884 1.65
225 1 1 0 154.07112386942242 20.16292508683058 1.65
226 1 1 0 159.56797270441598 19.161017275999516 1.65
227 1 1 0 1.158787514122963 16.02597257745125 1.65
228 1 1 0 200.97839523437958 17.527064664574404 1.65
229 1 1 0 105.45307917519469 20.62077147740745 1.65
230 1 1 0 102.90454345439873 23.229110200695715 1.65
231 1 1 0 99.5021362619204 18.864241556410185 1.65
232 1 1 0 100.35856475796251 22.331530977438 1.65
233 1 1 0 108.34055357171539 22.033453415784372 1.65
234 1 1 0 118.00687940926439 23.74367559363129 1.65
235 1 1 0 114.71878115914724 24.032021304870124 1.65
236 1 1 0 134.92343691305328 22.832725190329036 1.65
237 1 1 0 137.8147658016395 23.84825391460321 1.65
238 1 1 0 165.31263729591524 21.868001157265443 1.65
239 1 1 0 159.79155268743295 22.348532194459402 1.65
240 1 1 0 162.57883645168974 23.69258177116897 1.65
241 1 1 0 170.8175681511516 21.247113655002668 1.65
242 1 1 0 167.9646857790832 23.097534360586668 1.65
243 1 1 0 178.09047238237667 21.321681552396047 1.65
244 1 1 0 173.11819968477465 23.327772957622102 1.65
245 1 1 0 176.0530590050622 23.469911034784587 1.65
246 1 1 0 181.50741846555073 23.691388725877676 1.65
247 1 1 0 183.94278698386404 22.69141255128882 1.65
248 1 1 0 193.53792749744824 19.32365566145297 1.65
249 1 1 0 189.7991547748761 19.99774003132324 1.65
250 1 1 0 3.2299642822024293 18.353988052960048 1.65
251 1 1 0 6.245521447959171 17.968737681086658 1.65
252 1 1 0 7.756378443786867 12.644609158387123 1.65
253 1 1 0 8.413931569053386 15.104344814149387 1.65
254 1 1 0 109.19974284371871 25.644914370031408 1.65
255 1 1 0 107.0773442831643 27.458907316111517 1.65
256 1 1 0 103.669619290365 26.455785085152744 1.65
257 1 1 0 123.7178042742548 24.198908646780243 1.65
258 1 1 0 120.4861029136177 25.786370069920185 1.65
259 1 1 0 129.27048989285993 23.867757123613018 1.65
260 1 1 0 126.41706099579696 25.674378849832422 1.65
261 1 1 0 132.16163423768347 25.06159103084073 1.65
262 1 1 0 149.38107501494702 24.543167621286575 1.65
263 1 1 0 143.47045069534255 26.525165356039565 1.65
264 1 1 0 146.09740382100338 28.65485691901597 1.65
265 1 1 0 148.43848708966598 27.67720462199087 1.65
266 1 1 0 154.53315876396405 23.126023034605286 1.65
267 1 1 0 152.34286461179406 25.198835381906807 1.65
268 1 1 0 157.3129212730925 24.28758584345343 1.65
269 1 1 0 195.52326142643767 21.978521983071083 1.65
270 1 1 0 189.788772635482 22.940859823032998 1.65
271 1 1 0 193.00370169660815 24.195486858596723 1.65
272 1 1 0 201.22409969933736 20.736751372125337 1.65
273 1 1 0 198.7886136428458 22.87521183191926 1.65
274 1 1 0 1.529557124515203 21.356317490430886 1.65
275 1 1 0 112.84994532855178 26.701946929717042 1.65
276 1 1 0 120.34342562425967 29.005948775571465 1.65
277 1 1 0 114.1311521139752 29.51851632900216 1.65
278 1 1 0 117.55377470410227 30.516147517967944 1.65
279 1 1 0 137.89999576484524 27.298059526339788 1.65
280 1 1 0 132.35209224824482 28.05609072808609 1.65
281 1 1 0 135.19912488682036 29.27703049931097 1.65
282 1 1 0 140.65873350403527 28.71866363988084 1.65
283 1 1 0 161.87948393445618 27.02384647695596 1.65
284 1 1 0 156.54162851240073 27.75959947599975 1.65
285 1 1 0 158.32090740950758 29.151810532792705 1.65
286 1 1 0 168.78668997296182 26.00290124424466 1.65
287 1 1 0 163.8146218795317 28.54657436793652 1.65
288 1 1 0 167.14817267344011 28.03741086714451 1.65
289 1 1 0 171.93791080091614 26.401458900336454 1.65
290 1 1 0 177.89800992617194 26.97546277124865 1.65
291 1 1 0 181.01661755346007 27.096191583054487 1.65
292 1 1 0 187.0340373046417 24.756824021271168 1.65
293 1 1 0 3.653082263061094 24.141593713008593 1.65
294 1 1 0 199.43399720050365 26.17303825299407 1.65
295 1 1 0 202.23531689942118 27.33285780299441 1.65
296 1 1 0 2.614614250796137 26.61055855013738 1.65
297 1 1 0 8.1367132657535 20.58752686104326 1.65
298 1 1 0 7.244681238542652 23.75805345549436 1.65
299 1 1 0 107.15772170533803 30.754729340564378 1.65
300 1 1 0 103.80394607987905 31.677728209170148 1.65
301 1 1 0 101.84095854891655 29.159963790214796 1.65
302 1 1 0 126.55788673584837 29.094297510367465 1.65
303 1 1 0 123.71595272494818 30.838406012966562 1.65
304 1 1 0 129.60177364347268 30.28217548139342 1.65
305 1 1 0 140.7381965829236 32.36186265918364 1.65
306 1 1 0 146.28683541197788 32.69849296182908 1.65
307 1 1 0 143.73934536520537 34.21200041815548 1.65
308 1 1 0 153.4472621458682 28.345883279215812 1.65
309 1 1 0 151.28193636436987 30.120618757318447 1.65
310 1 1 0 173.3149855228539 29.147179507569998 1.65
311 1 1 0 176.34022532782217 29.579045301319713 1.65
312 1 1 0 193.44140219171402 27.392274354497825 1.65
313 1 1 0 187.5414072182704 27.92198731452912 1.65
314 1 1 0 190.7338430442165 29.30281061219205 1.65
315 1 1 0 196.6063454792014 28.47313590004699 1.65
316 1 1 0 109.30732343930725 32.86404493037547 1.65
317 1 1 0 112.3104693159354 32.23237033621735 1.65
318 1 1 0 123.54016042840347 34.26410041262289 1.65
319 1 1 0 117.55389188379849 33.588950643268674 1.65
320 1 1 0 120.16775050741117 35.50444630052852 1.65
321 1 1 0 131.2574118588009 33.230545564673534 1.65
322 1 1 0 126.16629846242033 36.10893604818435 1.65
323 1 1 0 129.91422624037176 35.51236556673284 1.65
324 1 1 0 134.87138639689266 32.59669806164065 1.65
325 1 1 0 137.6517203538059 34.260926107972274 1.65
326 1 1 0 163.2340886363525 31.757675236410996 1.65
327 1 1 0 157.76850943787858 32.44490076942284 1.65
328 1 1 0 160.74655271964795 33.52803758206056 1.65
329 1 1 0 168.44345651186055 31.009546972274553 1.65
330 1 1 0 166.19032978047147 32.99738260361868 1.65
331 1 1 0 171.45904853332001 31.72075795660825 1.65
332 1 1 0 182.56540508036946 30.07236815370173 1.65
333 1 1 0 177.63037032935293 32.869508053153254 1.65
334 1 1 0 180.7369424546121 33.242102093729436 1.65
335 1 1 0 185.43561323412385 30.355259554109843 1.65
336 1 1 0 202.62320631827683 30.716198688362145 1.65
337 1 1 0 197.3415760389452 31.557122920991205 1.65
338 1 1 0 200.5571171791031 32.64036615930602 1.65
339 1 1 0 2.5004043962617386 31.81088705524381 1.65
340 1 1 0 4.657210764382738 29.501835987746173 1.65
341 1 1 0 102.7298486128104 34.51501658587366 1.65
342 1 1 0 108.25291243688987 36.21538987889385 1.65
343 1 1 0 105.029213235852 36.94336266578627 1.65
344 1 1 0 114.43567409645418 34.58102618474743 1.65
345 1 1 0 151.78202084229846 33.109300980388035 1.65
346 1 1 0 149.12800315856904 34.70952288787357 1.65
347 1 1 0 156.3353484143069 35.85848422798127 1.65
348 1 1 0 154.293464497332 36.140360017636795 1.65
349 1 1 0 172.39072740972176 34.699491491643464 1.65
350 1 1 0 175.53680940078638 35.41637579443876 1.65
351 1 1 0 190.22156315735248 32.56142452924838 1.65
352 1 1 0 186.93338941806385 33.41032664695414 1.65
353 1 1 0 192.2358608937002 34.40261330760207 1.65
354 1 1 0 195.47908740869158 33.93973294139831 1.65
355 1 1 0 99.40257239032384 35.221263070044515 1.65
356 1 1 0 98.53911391352084 29.54876279855815 1.65
357 1 1 0 97.17482522199678 32.77277370168436 1.65
358 1 1 0 113.79421930766856 37.74979829955346 1.65
359 1 1 0 110.6146035247324 38.752487399541764 1.65
360 1 1 0 119.66510533337994 38.391002403055786 1.65
361 1 1 0 116.40979192098163 39.64427886060198 1.65
362 1 1 0 125.7961223279225 39.34055307713929 1.65
363 1 1 0 120.34853307478058 41.51532428068086 1.65
364 1 1 0 122.55599422569799 41.9710639787672 1.65
365 1 1 0 131.58833089848713 38.35138250290796 1.65
366 1 1 0 128.79557464914487 40.48941672284055 1.65
367 1 1 0 137.6364084270481 37.670783366027734 1.65
368 1 1 0 134.63584758718824 39.39323539402775 1.65
369 1 1 0 143.84251289609028 37.86712272954164 1.65
370 1 1 0 140.82605218705075 39.42684222862527 1.65
371 1 1 0 161.142421659979 36.55072707832531 1.65
372 1 1 0 158.62883657388798 38.485638406331624 1.65
373 1 1 0 166.7183427766344 35.925675342177165 1.65
374 1 1 0 164.15797057284647 37.708657471234226 1.65
375 1 1 0 169.90314838442518 36.91657324586825 1.65
376 1 1 0 176.50970228018826 38.79660709026779 1.65
377 1 1 0 201.1443731033719 35.99329210578083 1.65
378 1 1 0 1.1483532596178554 37.22912111140538 1.65
379 1 1 0 3.44878203789266 34.97088353181223 1.65
380 1 1 0 149.51577911969105 37.97758703629153 1.65
381 1 1 0 146.7777789039848 39.6216794216332 1.65
382 1 1 0 152.63425499909883 39.395413269450046 1.65
383 1 1 0 170.50020886573483 39.746057525169164 1.65
384 1 1 0 173.96068077043324 40.90920706677341 1.65
385 1 1 0 191.44154019504077 37.88744056364075 1.65
386 1 1 0 198.04890686530564 36.78915031154733 1.65
387 1 1 0 197.4002190988654 38.87763830528184 1.65
388 1 1 0 194.03607894359192 39.5130481911715 1.65
389 1 1 0 103.94169851440016 39.89669912761261 1.65
390 1 1 0 100.65472635729289 40.60466557504972 1.65
391 1 1 0 98.41496485625817 38.357575597394245 1.65
392 1 1 0 109.37341021778889 42.05550754718375 1.65
393 1 1 0 105.92420440849452 42.47174648836217 1.65
394 1 1 0 117.09321966238227 42.76860073822704 1.65
395 1 1 0 111.36290008926521 44.45693791413424 1.65
396 1 1 0 115.10832111534539 44.63718876220286 1.65
397 1 1 0 129.09915533284922 43.15763799590323 1.65
398 1 1 0 123.04633160698387 45.22654552051171 1.65
399 1 1 0 126.59004039291274 45.26425589194648 1.65
400 1 1 0 134.93952971931228 42.71517440435727 1.65
401 1 1 0 132.19559371431552 44.34154278630016 1.65
402 1 1 0 146.76393608108393 42.97933823045029 1.65
403 1 1 0 160.64661207357378 41.1246286734185 1.65
404 1 1 0 153.03978880200123 42.92192632719771 1.65
405 1 1 0 156.1545113138452 44.275377413146 1.65
406 1 1 0 159.80863692760352 43.10597883282969 1.65
407 1 1 0 164.32066979418818 40.572116073852634 1.65
408 1 1 0 167.47810247928575 41.61861822409649 1.65
409 1 1 0 199.00670971722613 41.65051251629996 1.65
410 1 1 0 1.712805578242211 40.664526914342275 1.65
411 1 1 0 201.8868240694634 42.86931013483955 1.65
412 1 1 0 103.48721205220788 45.09158993791401 1.65
413 1 1 0 100.082617396844 43.85817445578298 1.65
414 1 1 0 12.43009892720794 0.11222246360386823 1.65
415 1 1 0 9.632328372307436 174.23045469138404 1.65
416 1 1 0 15.39118889928419 174.77021127801297 1.65
417 1 1 0 19.220910287310314 3.212412789621856 1.65
418 1 1 0 15.786930584980345 5.223327451911713 1.65
419 1 1 0 18.87037742916248 0.13931504872062517 1.65
420 1 1 0 15.306978599506229 171.66528546216776 1.65
421 1 1 0 12.299067098035886 169.64822247280702 1.65
422 1 1 0 9.585506842913343 170.84981959915297 1.65
423 1 1 0 22.673611763531042 4.924870451399059 1.65
424 1 1 0 16.135779232930222 7.939065159697247 1.65
425 1 1 0 21.97724792393337 8.599608343657817 1.65
426 1 1 0 18.873395095662516 9.602888389666147 1.65
427 1 1 0 21.69634776843411 173.52849304387178 1.65
428 1 1 0 17.58101711850944 169.24546934359043 1.65
429 1 1 0 20.491197757559032 169.71801223730736 1.65
430 1 1 0 25.807919074268234 3.8781403254903095 1.65
431 1 1 0 26.693160718319735 0.6566938626568155 1.65
432 1 1 0 24.93320161375914 173.7720243695736 1.65
433 1 1 0 149.90747009969257 44.86175890285628 1.65
434 1 1 0 32.05028450394566 3.5155655363701706 1.65
435 1 1 0 35.57350779745045 3.6496930895661346 1.65
436 1 1 0 29.342722858256323 5.765947608932612 1.65
437 1 1 0 37.620609323584304 6.588714868574119 1.65
438 1 1 0 29.658215476657137 8.320429810688974 1.65
439 1 1 0 32.820234766263574 9.982675610680358 1.65
440 1 1 0 36.12617735207446 9.555443288912361 1.65
441 1 1 0 30.234656055904466 0.5342303401521654 1.65
442 1 1 0 37.11595484518556 0.5923969066853696 1.65
443 1 1 0 34.95838562798613 173.76520155653776 1.65
444 1 1 0 31.600310132209824 173.8411625432005 1.65
445 1 1 0 43.38615587221336 5.268599594811532 1.65
446 1 1 0 42.95603985596706 1.8248855079544095 1.65
447 1 1 0 41.385320697149034 7.323022509388668 1.65
448 1 1 0 40.44385864890736 175.91482218386915 1.65
449 1 1 0 49.570715022695886 4.276979206324665 1.65
450 1 1 0 46.81219949000221 6.385562308071208 1.65
451 1 1 0 52.59451832447886 5.767402230398816 1.65
452 1 1 0 51.796651993002335 9.009721127181562 1.65
453 1 1 0 48.48293180998927 9.37927768543806 1.65
454 1 1 0 49.535360016248994 1.6487006263387798 1.65
455 1 1 0 46.34672846730902 0.31356964122821296 1.65
456 1 1 0 53.24315956282461 175.90771267110856 1.65
457 1 1 0 49.69025781635333 172.02092284204588 1.65
458 1 1 0 46.85831594039156 173.22019686279307 1.65
459 1 1 0 52.8864698898464 173.3733076652508 1.65
460 1 1 0 55.59766902439845 4.654022569684173 1.65
461 1 1 0 56.28166526919108 1.401050673100377 1.65
462 1 1 0 57.917453581622766 6.795795350085218 1.65
463 1 1 0 57.081730114240024 9.69645637267448 1.65
464 1 1 0 53.96407922553918 10.797002489056181 1.65
465 1 1 0 62.035493415222064 2.8842925300184517 1.65
466 1 1 0 61.06880455307349 5.951559805395237 1.65
467 1 1 0 59.56813868856397 0.47555617812463247 1.65
468 1 1 0 174.20481759695258 44.123901156120695 1.65
469 1 1 0 167.89345196866418 44.16690900460995 1.65
470 1 1 0 171.15969518163257 45.50904239502991 1.65
471 1 1 0 176.96223030575243 46.65506125928025 1.65
472 1 1 0 65.38998254167706 2.3164596078947453 1.65
473 1 1 0 67.59949241104084 4.780582401060685 1.65
474 1 1 0 66.40275963148551 7.804804412168335 1.65
475 1 1 0 63.226560899973144 8.407948894379183 1.65
476 1 1 0 66.46377270370326 175.52999795041103 1.65
477 1 1 0 64.34134828889776 172.91168384353927 1.65
478 1 1 0 60.80020340021346 173.31097006640854 1.65
479 1 1 0 70.9477551231212 4.233840988072231 1.65
480 1 1 0 72.1620504344125 1.1320239909654415 1.65
481 1 1 0 69.88757788435835 174.8923037464702 1.65
482 1 1 0 72.93690973121932 6.753713704878427 1.65
483 1 1 0 71.54987099525877 9.792446926430461 1.65
484 1 1 0 68.36398360760532 10.296796220731915 1.65
485 1 1 0 195.64256956195268 42.28592240218963 1.65
486 1 1 0 193.93629178136425 44.34002757887313 1.65
487 1 1 0 77.77303980058673 3.74803290689041 1.65
488 1 1 0 76.17081038419299 6.541210727015155 1.65
489 1 1 0 75.75343445890437 0.858718887646889 1.65
490 1 1 0 81.07793728794188 4.912342884191175 1.65
491 1 1 0 81.17455921201987 8.699113200150148 1.65
492 1 1 0 78.02003570584098 9.452280591465927 1.65
493 1 1 0 83.20709018651408 3.4387320912282906 1.65
494 1 1 0 83.04429853465557 175.95761283390004 1.65
495 1 1 0 80.56491529122633 173.76700287579217 1.65
496 1 1 0 77.07826972190722 174.19413478837086 1.65
497 1 1 0 86.77222891719761 5.784098434956527 1.65
498 1 1 0 83.4795496393689 10.71037436119657 1.65
499 1 1 0 86.94806644597445 9.268970388965833 1.65
500 1 1 0 89.0442026573855 4.2801565422661465 1.65
501 1 1 0 88.73384412627016 0.7615303948865313 1.65
502 1 1 0 86.29907873422376 174.78435303024864 1.65
503 1 1 0 107.49616801545372 48.607397134025355 1.65
504 1 1 0 104.21914110081455 47.6640287072398 1.65
505 1 1 0 110.23157001919463 47.31975503034552 1.65
506 1 1 0 92.36180171813804 5.28380305212143 1.65
507 1 1 0 94.04282794344147 2.293273216213558 1.65
508 1 1 0 91.92839397339502 175.75776242692567 1.65
509 1 1 0 98.98975947375841 4.992568172345001 1.65
510 1 1 0 97.69699010273423 7.897523748398189 1.65
511 1 1 0 97.13169598385086 2.07986669526604 1.65
512 1 1 0 103.385823051014 175.5597709920991 1.65
513 1 1 0 99.28480340160898 175.43615856638408 1.65
514 1 1 0 94.15790038752324 7.975352107227103 1.65
515 1 1 0 121.22330022398114 48.38751828025045 1.65
516 1 1 0 115.73677948008513 47.85986471496232 1.65
517 1 1 0 118.10610779503668 49.607989148811576 1.65
518 1 1 0 128.46200938814093 48.11894265479634 1.65
519 1 1 0 123.69036486653522 50.25547578594037 1.65
520 1 1 0 127.38536524476615 49.949189789051495 1.65
521 1 1 0 13.388837458408702 10.08631646771515 1.65
522 1 1 0 10.529961433737412 10.028499348726788 1.65
523 1 1 0 132.02328191693053 47.58882964192984 1.65
524 1 1 0 27.008574720499574 10.81387026220321 1.65
525 1 1 0 24.0295566029942 11.24481757619063 1.65
526 1 1 0 31.941440734859597 13.214501055778001 1.65
527 1 1 0 28.830650781188293 13.805584440685358 1.65
528 1 1 0 43.28888209602465 11.067451038509862 1.65
529 1 1 0 38.218554148309046 12.251450003698741 1.65
530 1 1 0 41.61654751869451 13.029150112481693 1.65
531 1 1 0 149.68499447964257 48.42367631625777 1.65
532 1 1 0 156.97639778787973 47.7114370941971 1.65
533 1 1 0 155.30235949061017 50.20639893109611 1.65
534 1 1 0 152.1343297026141 50.569261774615704 1.65
535 1 1 0 46.96044959107604 12.006743501299578 1.65
536 1 1 0 162.29522032377403 45.89195180887822 1.65
537 1 1 0 160.44082249037584 48.39946421531722 1.65
538 1 1 0 165.39357271583444 46.29727379270832 1.65
539 1 1 0 62.13559319899107 11.519625631759034 1.65
540 1 1 0 59.14211338470868 11.963897565364348 1.65
541 1 1 0 76.52386402089344 12.205701875634574 1.65
542 1 1 0 73.28759996328492 12.333365232735835 1.65
543 1 1 0 82.93747477955017 14.148311767636338 1.65
544 1 1 0 77.46111191637023 15.413584004588618 1.65
545 1 1 0 80.04504062099429 16.284334369645194 1.65
546 1 1 0 92.91113915478101 10.860585573074713 1.65
547 1 1 0 89.5182252930617 11.498005328920389 1.65
548 1 1 0 4.774113703434667 41.974909087734595 1.65
549 1 1 0 202.47523173854353 46.34460654574325 1.65
550 1 1 0 3.2285151768133225 47.90640770966481 1.65
551 1 1 0 5.701415632925655 45.74149347215344 1.65
552 1 1 0 6.769096759282157 34.57295357323903 1.65
553 1 1 0 8.217297556885818 36.4527829990995 1.65
554 1 1 0 7.312569277144931 39.92726926289922 1.65
555 1 1 0 195.5081804547848 46.69697924072739 1.65
556 1 1 0 199.4728062545224 47.66773642238448 1.65
557 1 1 0 95.36333863875421 13.491854158218445 1.65
558 1 1 0 108.36003151854175 51.987463016517616 1.65
559 1 1 0 106.4588438631123 53.85307117944554 1.65
560 1 1 0 102.9452090703174 53.027510359507524 1.65
561 1 1 0 101.56936981110765 50.21853376979404 1.65
562 1 1 0 112.71377051410089 49.30144381366295 1.65
563 1 1 0 17.68686805378695 12.719589714506094 1.65
564 1 1 0 14.469144467632793 12.928141632688963 1.65
565 1 1 0 22.47508533415655 14.759599517660165 1.65
566 1 1 0 19.236249613220146 15.231091609967299 1.65
567 1 1 0 34.135835584452494 15.658141704391957 1.65
568 1 1 0 37.10700641209105 15.122322974080696 1.65
569 1 1 0 170.379099660474 48.482465826253154 1.65
570 1 1 0 166.9231555362434 48.99775813726963 1.65
571 1 1 0 48.82515413059184 14.849829646377625 1.65
572 1 1 0 54.31683739617857 14.05986704946569 1.65
573 1 1 0 52.39720128990982 15.797388113955353 1.65
574 1 1 0 175.70045150137156 50.0651884307259 1.65