ITEM: TIMESTEP
1769
ITEM: NUMBER OF ATOMS
15744
ITEM: BOX BOUNDS pp pp pp
0.0000000000000000e+00 2.0593386791352691e+02
0.0000000000000000e+00 1.7787112281218739e+02
-1.0000000000000000e+02 1.0000000000000000e+02
ITEM: ATOMS id type element x y z v_uncoordination
1 1 Si 123.38 1.07875 1.61271 0
2 1 Si 122.523 4.1372 1.61948 0
3 1 Si 120.312 177.64 1.62414 0
4 1 Si 119.289 4.2194 1.61302 0
5 1 Si 117.526 1.53344 1.61434 0
6 1 Si 126.468 177.797 1.62907 0
7 1 Si 124.246 6.84383 1.63847 0
8 1 Si 130.764 6.65688 1.6295 0
9 1 Si 127.507 7.23636 1.59718 0
10 1 Si 131.683 3.67544 1.6404 0
11 1 Si 129.542 1.2564 1.60563 0
12 1 Si 122.704 172.997 1.59071 0
13 1 Si 125.532 174.648 1.6276 0
14 1 Si 119.858 174.518 1.6173 0
15 1 Si 137.894 2.29024 1.62928 0
16 1 Si 139.955 177.568 1.62213 0
17 1 Si 136.305 173.59 1.62279 0
18 1 Si 139.412 174.37 1.62583 0
19 1 Si 134.681 2.54898 1.59683 0
20 1 Si 132.55 0.227068 1.6034 0
21 1 Si 133.65 175.251 1.64592 0
22 1 Si 139.593 5.03507 1.61277 0
23 1 Si 142.645 3.94741 1.61222 0
24 1 Si 143.018 0.75385 1.61226 0
25 1 Si 136.046 167.762 1.6279 0
26 1 Si 134.993 170.691 1.6385 0
27 1 Si 139.527 168.733 1.61434 0
28 1 Si 141.724 171.968 1.61322 0
29 1 Si 197.773 27.3775 1.616 0
30 1 Si 198.628 24.1813 1.6305 0
31 1 Si 195.254 29.4097 1.64316 0
32 1 Si 196.006 22.4405 1.64853 0
33 1 Si 193.231 23.9287 1.60869 0
34 1 Si 191.152 26.2425 1.64098 0
35 1 Si 192.036 29.2095 1.6266 0
36 1 Si 200.025 29.6548 1.61614 0
37 1 Si 201.655 22.7504 1.59615 0
38 1 Si 203.244 25.4576 1.62504 0
39 1 Si 202.945 28.637 1.63621 0
40 1 Si 196.115 32.4521 1.62481 0
41 1 Si 199.3 32.7441 1.61858 0
42 1 Si 121.412 29.9761 1.6287 0
43 1 Si 119.597 27.4008 1.63913 0
44 1 Si 124.395 28.991 1.62497 0
45 1 Si 121.348 24.7689 1.62958 0
46 1 Si 124.261 25.9186 1.63791 0
47 1 Si 120.634 33.0087 1.6327 0
48 1 Si 117.553 33.9583 1.61666 0
49 1 Si 116.445 27.5239 1.63637 0
50 1 Si 115.682 31.048 1.62934 0
51 1 Si 123.426 34.4317 1.60102 0
52 1 Si 126.321 33.2569 1.59812 0
53 1 Si 127.244 30.3166 1.63591 0
54 1 Si 124.775 37.2466 1.62462 0
55 1 Si 117.174 37.337 1.65675 0
56 1 Si 119.737 39.4133 1.62475 0
57 1 Si 123 39.7949 1.63072 0
58 1 Si 127.642 36.0638 1.61628 0
59 1 Si 117.574 6.83251 1.62544 0
60 1 Si 119.034 9.58188 1.63219 0
61 1 Si 122.166 9.34969 1.62522 0
62 1 Si 114.465 7.31429 1.61937 0
63 1 Si 112.727 4.66347 1.62293 0
64 1 Si 114.183 1.76131 1.61695 0
65 1 Si 133.268 8.80629 1.59392 0
66 1 Si 128.09 10.3146 1.616 0
67 1 Si 131.094 11.0587 1.61259 0
68 1 Si 138.96 8.23665 1.63518 0
69 1 Si 136.307 10.0633 1.6418 0
70 1 Si 145.047 6.02433 1.64402 0
71 1 Si 144.403 9.12062 1.63431 0
72 1 Si 141.485 10.2236 1.62844 0
73 1 Si 148.562 1.79916 1.63127 0
74 1 Si 148.108 5.11769 1.6365 0
75 1 Si 145.953 177.165 1.62491 0
76 1 Si 151.915 1.82085 1.62577 0
77 1 Si 154.16 4.4573 1.62701 0
78 1 Si 153.302 7.73752 1.60775 0
79 1 Si 150.1 7.75138 1.62246 0
80 1 Si 153.255 176.707 1.62179 0
81 1 Si 148.163 172.077 1.62918 0
82 1 Si 145.179 173.666 1.62578 0
83 1 Si 151.347 173.628 1.60892 0
84 1 Si 157.381 3.57572 1.62363 0
85 1 Si 160.313 6.05043 1.66071 0
86 1 Si 159.72 9.76237 1.63087 0
87 1 Si 153.905 11.1419 1.62444 0
88 1 Si 157.087 12.0027 1.62271 0
89 1 Si 156.508 0.130056 1.61948 0
90 1 Si 164.671 1.35294 1.63301 0
91 1 Si 163.897 4.87309 1.63351 0
92 1 Si 162.157 176.454 1.61999 0
93 1 Si 158.615 175.446 1.63219 0
94 1 Si 168.201 0.594428 1.63076 0
95 1 Si 170.843 2.76991 1.62041 0
96 1 Si 170.218 5.9853 1.6134 0
97 1 Si 166.973 7.16275 1.62575 0
98 1 Si 169.439 175.309 1.62486 0
99 1 Si 163.607 173.48 1.63048 0
100 1 Si 166.948 173.089 1.63519 0
101 1 Si 174.246 2.32609 1.62152 0
102 1 Si 176.046 5.27062 1.62418 0
103 1 Si 173.357 7.31047 1.61638 0
104 1 Si 175.222 176.935 1.61952 0
105 1 Si 172.823 174.492 1.62539 0
106 1 Si 182.351 4.65692 1.61441 0
107 1 Si 179.506 6.21973 1.6218 0
108 1 Si 183.172 1.7062 1.63448 0
109 1 Si 181.285 177.102 1.60215 0
110 1 Si 178.386 175.792 1.6237 0
111 1 Si 185.443 5.58203 1.60575 0
112 1 Si 181.431 9.01653 1.63391 0
113 1 Si 184.775 8.66156 1.62017 0
114 1 Si 186.028 0.435856 1.62894 0
115 1 Si 184.167 175.841 1.61135 0
116 1 Si 188.254 4.0348 1.61974 0
117 1 Si 189.111 0.950546 1.607 0
118 1 Si 190.887 5.596 1.59109 0
119 1 Si 193.961 5.19272 1.58949 0
120 1 Si 190.827 8.70587 1.58866 0
121 1 Si 194.026 8.4109 1.63957 0
122 1 Si 194.155 1.93346 1.61208 0
123 1 Si 191.964 177.251 1.62923 0
124 1 Si 201.12 2.43056 1.5965 0
125 1 Si 199.431 5.07297 1.61745 0
126 1 Si 198.953 0.172334 1.58997 0
127 1 Si 197.206 2.75901 1.63565 0
128 1 Si 204.294 2.45435 1.63825 0
129 1 Si 0.322773 5.03549 1.61832 0
130 1 Si 201.224 7.82058 1.63818 0
131 1 Si 204.615 7.91433 1.63232 0
132 1 Si 205.124 177.287 1.62421 0
133 1 Si 199.673 175.008 1.64607 0
134 1 Si 202.877 175.019 1.6351 0
135 1 Si 3.64758 4.94352 1.62778 0
136 1 Si 5.66811 2.40881 1.61974 0
137 1 Si 4.89565 177.177 1.63025 0
138 1 Si 2.03995 175.861 1.62976 0
139 1 Si 107.706 7.30948 1.64083 0
140 1 Si 104.495 6.28196 1.62496 0
141 1 Si 109.087 10.4492 1.61094 0
142 1 Si 106.888 12.7723 1.63008 0
143 1 Si 103.837 11.8821 1.63994 0
144 1 Si 102.639 8.89291 1.62572 0
145 1 Si 109.517 4.64965 1.62042 0
146 1 Si 103.072 3.18397 1.63814 0
147 1 Si 108.421 1.61971 1.60857 0
148 1 Si 105.273 0.532848 1.63328 0
149 1 Si 114.334 10.5236 1.63171 0
150 1 Si 111.879 12.4929 1.63499 0
151 1 Si 117.118 12.1036 1.61688 0
152 1 Si 122.943 12.3601 1.62566 0
153 1 Si 126.009 12.5895 1.64557 0
154 1 Si 146.326 11.6651 1.62681 0
155 1 Si 149.359 10.937 1.61807 0
156 1 Si 161.945 12.2785 1.61664 0
157 1 Si 167.561 10.6227 1.62734 0
158 1 Si 165.153 12.9427 1.63136 0
159 1 Si 173.76 10.53 1.62339 0
160 1 Si 176.698 12.2432 1.6157 0
161 1 Si 180.095 12.047 1.63272 0
162 1 Si 187.829 9.90686 1.64075 0
163 1 Si 196.157 10.8371 1.62133 0
164 1 Si 199.447 10.5724 1.62905 0
165 1 Si 0.817003 10.5003 1.62162 0
166 1 Si 4.0621 10.4804 1.6251 0
167 1 Si 5.48814 7.64724 1.6282 0
168 1 Si 107.821 15.8415 1.60584 0
169 1 Si 113.199 15.7741 1.62827 0
170 1 Si 110.581 17.5698 1.63094 0
171 1 Si 118.189 15.1402 1.62951 0
172 1 Si 121.361 15.0902 1.62263 0
173 1 Si 131.717 14.0481 1.62735 0
174 1 Si 126.518 15.6296 1.63422 0
175 1 Si 129.527 16.2036 1.62676 0
176 1 Si 136.934 13.324 1.62598 0
177 1 Si 134.54 15.2927 1.63892 0
178 1 Si 141.799 13.3873 1.62912 0
179 1 Si 139.434 15.4352 1.62839 0
180 1 Si 144.786 14.4349 1.62133 0
181 1 Si 151.256 13.5518 1.60208 0
182 1 Si 160.954 15.4207 1.62454 0
183 1 Si 157.778 15.2723 1.61563 0
184 1 Si 170.752 11.9733 1.60193 0
185 1 Si 175.56 15.2364 1.63185 0
186 1 Si 172.293 14.8709 1.6393 0
187 1 Si 188.336 12.9761 1.62828 0
188 1 Si 182.157 14.7867 1.627 0
189 1 Si 185.482 14.6303 1.62258 0
190 1 Si 191.472 13.9904 1.62684 0
191 1 Si 194.745 13.791 1.63018 0
192 1 Si 201.113 13.32 1.59913 0
193 1 Si 0.99281 13.7892 1.62675 0
194 1 Si 203.927 14.7333 1.62508 0
195 1 Si 105.486 18.0091 1.61227 0
196 1 Si 102.325 17.2666 1.6467 0
197 1 Si 101.564 14.0938 1.62828 0
198 1 Si 116.149 17.681 1.62527 0
199 1 Si 123.757 17.131 1.63776 0
200 1 Si 145.718 17.5102 1.62231 0
201 1 Si 149.157 16.7304 1.62061 0
202 1 Si 165.568 16.2816 1.60877 0
203 1 Si 162.91 18.1418 1.60155 0
204 1 Si 180.885 17.9483 1.63076 0
205 1 Si 177.575 17.8628 1.64646 0
206 1 Si 187.163 17.2936 1.63181 0
207 1 Si 190.293 16.8681 1.62939 0
208 1 Si 196.765 16.3812 1.64297 0
209 1 Si 199.912 16.2479 1.59867 0
210 1 Si 3.78601 15.692 1.6192 0
211 1 Si 5.86775 13.2357 1.62384 0
212 1 Si 107.089 20.7935 1.63194 0
213 1 Si 110.359 20.8106 1.61163 0
214 1 Si 123.595 20.2531 1.63734 0
215 1 Si 117.361 21.0305 1.63709 0
216 1 Si 120.637 21.704 1.63555 0
217 1 Si 131.338 18.7084 1.63143 0
218 1 Si 126.607 21.4532 1.59813 0
219 1 Si 129.805 21.3512 1.62811 0
220 1 Si 134.451 18.3995 1.6253 0
221 1 Si 139.89 18.7415 1.64471 0
222 1 Si 136.947 20.3128 1.63396 0
223 1 Si 143.128 19.9692 1.63866 0
224 1 Si 156.646 18.3167 1.65361 0
225 1 Si 150.402 19.7756 1.63371 0
226 1 Si 153.594 19.2909 1.60184 0
227 1 Si 167.905 18.5283 1.62982 0
228 1 Si 170.992 17.7434 1.63029 0
229 1 Si 185.832 20.134 1.61985 0
230 1 Si 182.73 20.8878 1.61401 0
231 1 Si 192.495 19.0233 1.6231 0
232 1 Si 195.597 19.2976 1.60722 0
233 1 Si 202.739 17.645 1.6209 0
234 1 Si 105.359 23.4659 1.62898 0
235 1 Si 102.376 24.8305 1.62818 0
236 1 Si 99.8503 19.4128 1.61611 0
237 1 Si 99.7299 22.8817 1.62037 0
238 1 Si 112.265 23.5529 1.64251 0
239 1 Si 115.528 24.0459 1.63292 0
240 1 Si 163.393 21.6312 1.62112 0
241 1 Si 158.59 20.9395 1.64484 0
242 1 Si 160.779 23.4389 1.63981 0
243 1 Si 143.063 40.6481 1.64882 0
244 1 Si 140.425 38.7606 1.6455 0
245 1 Si 146.101 39.2767 1.62841 0
246 1 Si 143.903 33.9236 1.64084 0
247 1 Si 140.988 35.517 1.64871 0
248 1 Si 146.521 35.925 1.63087 0
249 1 Si 142.409 43.8697 1.64848 0
250 1 Si 137.443 40.1681 1.63113 0
251 1 Si 136.686 43.324 1.64201 0
252 1 Si 139.349 45.192 1.64746 0
253 1 Si 148.707 41.3873 1.62697 0
254 1 Si 148.218 44.7167 1.62879 0
255 1 Si 145.046 45.7804 1.62658 0
256 1 Si 168.032 21.7664 1.61966 0
257 1 Si 165.851 24.1159 1.62037 0
258 1 Si 172.886 20.3115 1.6456 0
259 1 Si 176.055 20.711 1.63966 0
260 1 Si 191.09 21.7029 1.61951 0
261 1 Si 188.055 22.2872 1.64382 0
262 1 Si 204.21 20.4656 1.63252 0
263 1 Si 1.7956 20.4674 1.63323 0
264 1 Si 4.89429 18.9408 1.6228 0
265 1 Si 107.29 25.9003 1.61244 0
266 1 Si 110.423 26.2168 1.64155 0
267 1 Si 127.033 24.5614 1.61281 0
268 1 Si 132.169 23.568 1.61881 0
269 1 Si 129.949 25.8126 1.64359 0
270 1 Si 135.477 23.27 1.62606 0
271 1 Si 143.587 23.492 1.62783 0
272 1 Si 137.506 25.8062 1.62408 0
273 1 Si 140.909 25.6755 1.61921 0
274 1 Si 149.376 23.0656 1.63072 0
275 1 Si 146.701 25.1442 1.62197 0
276 1 Si 153.935 22.3629 1.62021 0
277 1 Si 152.105 24.7973 1.6382 0
278 1 Si 156.793 23.3942 1.62176 0
279 1 Si 171.012 22.8342 1.63842 0
280 1 Si 177.29 23.7251 1.60904 0
281 1 Si 182.911 24.3737 1.6258 0
282 1 Si 179.97 25.5985 1.63823 0
283 1 Si 0.338335 25.364 1.61907 0
284 1 Si 2.76294 23.4434 1.63979 0
285 1 Si 105.52 28.5111 1.6249 0
286 1 Si 102.399 28.2132 1.63742 0
287 1 Si 110.528 29.3948 1.61702 0
288 1 Si 112.534 31.8743 1.63003 0
289 1 Si 157.311 26.4201 1.62424 0
290 1 Si 160.448 26.8138 1.6333 0
291 1 Si 172.045 25.8305 1.64402 0
292 1 Si 175.184 26.1056 1.62712 0
293 1 Si 188.099 25.3728 1.63382 0
294 1 Si 185.34 26.888 1.63684 0
295 1 Si 8.93427 2.41731 1.63265 0
296 1 Si 10.6035 5.15399 1.60638 0
297 1 Si 8.69955 7.75048 1.61964 0
298 1 Si 10.0624 177.302 1.6121 0
299 1 Si 7.51404 175.39 1.61339 0
300 1 Si 16.3695 4.59451 1.62043 0
301 1 Si 16.7848 1.2476 1.60499 0
302 1 Si 13.6313 6.29507 1.62675 0
303 1 Si 12.6113 175.381 1.62727 0
304 1 Si 15.7829 175.843 1.6276 0
305 1 Si 21.4218 4.31617 1.62867 0
306 1 Si 24.7657 4.45477 1.62989 0
307 1 Si 19.0398 6.59902 1.61627 0
308 1 Si 26.6137 7.17735 1.64227 0
309 1 Si 18.9135 10.0053 1.62803 0
310 1 Si 24.9319 10.0648 1.62679 0
311 1 Si 21.8384 11.5385 1.6403 0
312 1 Si 20.0107 1.34228 1.62298 0
313 1 Si 26.4387 1.64112 1.61836 0
314 1 Si 24.8756 176.751 1.60619 0
315 1 Si 21.6771 176.442 1.62592 0
316 1 Si 107.64 30.7662 1.62233 0
317 1 Si 32.732 5.36101 1.62952 0
318 1 Si 30.013 7.1645 1.61035 0
319 1 Si 32.4166 2.22277 1.62823 0
320 1 Si 29.5666 0.829019 1.61798 0
321 1 Si 35.826 6.55208 1.63347 0
322 1 Si 35.4526 9.80086 1.62038 0
323 1 Si 32.2162 9.55606 1.61256 0
324 1 Si 38.5247 4.5506 1.63164 0
325 1 Si 38.0484 1.15424 1.63728 0
326 1 Si 34.9287 0.178342 1.61581 0
327 1 Si 130.153 28.96 1.63542 0
328 1 Si 41.4924 6.14054 1.63026 0
329 1 Si 41.6387 9.53878 1.61095 0
330 1 Si 37.0283 12.8273 1.62863 0
331 1 Si 40.3035 12.8353 1.63432 0
332 1 Si 44.6108 4.7856 1.62707 0
333 1 Si 45.755 1.68962 1.62767 0
334 1 Si 43.5088 177.087 1.61134 0
335 1 Si 40.2024 176.396 1.63623 0
336 1 Si 135.968 28.7823 1.61452 0
337 1 Si 133.025 30.4135 1.65818 0
338 1 Si 46.8139 7.17428 1.61426 0
339 1 Si 44.8061 9.67765 1.61786 0
340 1 Si 49.0262 0.722226 1.63038 0
341 1 Si 45.6015 174.607 1.6281 0
342 1 Si 48.7971 175.338 1.62492 0
343 1 Si 52.455 5.61227 1.61257 0
344 1 Si 52.1584 2.06524 1.65875 0
345 1 Si 50.0077 7.75268 1.63822 0
346 1 Si 147.2 28.7688 1.63409 0
347 1 Si 141.457 28.9061 1.62382 0
348 1 Si 144.288 30.5571 1.6306 0
349 1 Si 59.3669 5.30622 1.63788 0
350 1 Si 57.1077 7.32594 1.61824 0
351 1 Si 61.4709 7.52634 1.58411 0
352 1 Si 59.1694 9.58065 1.58748 0
353 1 Si 60.0179 2.35211 1.63767 0
354 1 Si 57.819 0.0876301 1.60513 0
355 1 Si 54.3362 8.54582 1.64615 0
356 1 Si 54.6296 177.444 1.62774 0
357 1 Si 63.1344 1.92061 1.60464 0
358 1 Si 63.0577 176.68 1.6161 0
359 1 Si 60.0971 175.744 1.62465 0
360 1 Si 154.224 27.3019 1.64428 0
361 1 Si 153.555 30.4663 1.61672 0
362 1 Si 150.069 30.988 1.6202 0
363 1 Si 66.0148 3.13408 1.63696 0
364 1 Si 66.4973 6.43123 1.64463 0
365 1 Si 64.2713 8.79099 1.63424 0
366 1 Si 67.3756 0.0594802 1.63392 0
367 1 Si 65.7368 175.042 1.63385 0
368 1 Si 69.3766 7.8473 1.62639 0
369 1 Si 71.7078 5.47885 1.64645 0
370 1 Si 72.247 2.27622 1.62407 0
371 1 Si 70.528 177.399 1.62387 0
372 1 Si 166.96 27.5038 1.65426 0
373 1 Si 161.771 29.9525 1.63271 0
374 1 Si 165.151 30.3434 1.63606 0
375 1 Si 84.7968 5.58005 1.61858 0
376 1 Si 87.9944 5.89463 1.62 0
377 1 Si 82.8276 8.0416 1.63504 0
378 1 Si 89.4413 8.71731 1.64009 0
379 1 Si 84.1557 10.8639 1.61838 0
380 1 Si 87.2838 11.0166 1.60452 0
381 1 Si 83.9437 2.55473 1.62771 0
382 1 Si 89.5992 3.13794 1.62842 0
383 1 Si 86.926 1.27303 1.62225 0
384 1 Si 77.5823 5.60355 1.63088 0
385 1 Si 78.045 2.53487 1.62838 0
386 1 Si 79.7198 7.88982 1.6381 0
387 1 Si 80.9929 1.26901 1.61694 0
388 1 Si 170.202 28.4643 1.6397 0
389 1 Si 94.4768 6.09964 1.62234 0
390 1 Si 92.6982 8.98501 1.63672 0
391 1 Si 92.9013 3.12683 1.63007 0
392 1 Si 97.8199 5.9433 1.63334 0
393 1 Si 99.4134 8.87111 1.61636 0
394 1 Si 93.4804 12.2371 1.63872 0
395 1 Si 98.9677 12.1289 1.63094 0
396 1 Si 96.3629 13.9536 1.62992 0
397 1 Si 99.6256 2.99116 1.63232 0
398 1 Si 94.5591 0.237764 1.62914 0
399 1 Si 97.9682 177.821 1.62974 0
400 1 Si 176.521 28.9296 1.6141 0
401 1 Si 179.662 28.8342 1.60677 0
402 1 Si 13.564 9.55154 1.61379 0
403 1 Si 10.462 10.4132 1.63248 0
404 1 Si 15.9531 11.7403 1.63371 0
405 1 Si 1.30915 28.2963 1.62364 0
406 1 Si 205.361 30.732 1.64181 0
407 1 Si 27.4652 12.0232 1.61844 0
408 1 Si 30.653 12.1998 1.63271 0
409 1 Si 4.35322 28.1229 1.62626 0
410 1 Si 5.4134 25.1482 1.61906 0
411 1 Si 50.8247 10.9101 1.62186 0
412 1 Si 45.5764 12.6961 1.62381 0
413 1 Si 48.6274 13.095 1.63012 0
414 1 Si 55.4697 11.9182 1.64198 0
415 1 Si 52.8048 13.5369 1.63045 0
416 1 Si 138.636 30.5691 1.62048 0
417 1 Si 69.5973 11.2515 1.64538 0
418 1 Si 63.2418 11.888 1.63607 0
419 1 Si 67.8009 14.1904 1.61981 0
420 1 Si 64.5062 14.8073 1.61982 0
421 1 Si 74.6141 6.64839 1.62507 0
422 1 Si 74.9366 9.68881 1.6382 0
423 1 Si 72.7022 11.8086 1.63177 0
424 1 Si 75.2121 1.00515 1.63002 0
425 1 Si 156.301 32.7089 1.62907 0
426 1 Si 159.818 32.7923 1.63943 0
427 1 Si 77.9643 10.4471 1.63991 0
428 1 Si 78.4173 13.4733 1.61729 0
429 1 Si 83.3535 13.8766 1.61468 0
430 1 Si 80.7608 15.5799 1.63732 0
431 1 Si 86.423 13.9903 1.58562 0
432 1 Si 91.2264 14.5371 1.60083 0
433 1 Si 88.452 16.2073 1.5815 0
434 1 Si 171.844 31.4357 1.63904 0
435 1 Si 175.15 31.777 1.61763 0
436 1 Si 186.212 30.1985 1.64202 0
437 1 Si 189.442 31.2041 1.63406 0
438 1 Si 9.1725 13.4038 1.64421 0
439 1 Si 180.773 31.8624 1.63436 0
440 1 Si 183.985 32.6942 1.62352 0
441 1 Si 107.557 33.9138 1.61692 0
442 1 Si 104.922 35.8233 1.62752 0
443 1 Si 101.82 34.4556 1.63436 0
444 1 Si 100.762 31.1845 1.63845 0
445 1 Si 27.0694 15.0937 1.62741 0
446 1 Si 21.4284 14.8253 1.614 0
447 1 Si 24.226 16.3034 1.61703 0
448 1 Si 110.73 34.6496 1.61239 0
449 1 Si 32.3387 14.8916 1.61102 0
450 1 Si 29.7847 16.7148 1.62635 0
451 1 Si 35.4157 15.8634 1.62977 0
452 1 Si 41.4943 16.2577 1.6385 0
453 1 Si 44.5561 15.6868 1.63345 0
454 1 Si 132.665 33.6859 1.61198 0
455 1 Si 130.737 36.3462 1.63562 0
456 1 Si 60.1089 12.4645 1.63552 0
457 1 Si 57.7554 14.5198 1.62003 0
458 1 Si 138.291 33.762 1.64478 0
459 1 Si 135.423 35.2319 1.64131 0
460 1 Si 149.481 34.3523 1.62134 0
461 1 Si 75.2594 13.6228 1.62272 0
462 1 Si 155.09 35.7656 1.62394 0
463 1 Si 151.937 36.5329 1.62319 0
464 1 Si 166.732 33.4276 1.62686 0
465 1 Si 170.094 34.1912 1.62898 0
466 1 Si 177.938 33.5877 1.62845 0
467 1 Si 14.6089 14.8666 1.6242 0
468 1 Si 11.445 15.8693 1.60995 0
469 1 Si 190.511 34.2843 1.63863 0
470 1 Si 193.798 34.6607 1.64062 0
471 1 Si 16.2706 17.6795 1.61843 0
472 1 Si 19.4696 17.4292 1.64 0
473 1 Si 0.515533 33.7597 1.64665 0
474 1 Si 3.84503 33.8383 1.63457 0
475 1 Si 5.56792 31.015 1.63058 0
476 1 Si 49.2648 16.139 1.62186 0
477 1 Si 52.2956 16.8104 1.60527 0
478 1 Si 161.475 35.8498 1.62863 0
479 1 Si 156.691 38.602 1.61833 0
480 1 Si 159.923 38.8463 1.65241 0
481 1 Si 69.0568 17.2743 1.63524 0
482 1 Si 62.3503 17.5651 1.62973 0
483 1 Si 67.692 20.2421 1.62913 0
484 1 Si 64.2769 20.3092 1.62951 0
485 1 Si 164.794 36.1084 1.63669 0
486 1 Si 74.8823 16.5844 1.61849 0
487 1 Si 72.1336 17.9546 1.60392 0
488 1 Si 171.815 37.2148 1.65091 0
489 1 Si 178.309 36.811 1.62744 0
490 1 Si 175.196 38.4123 1.61802 0
491 1 Si 92.1209 17.5054 1.62504 0
492 1 Si 97.2819 17.2344 1.62111 0
493 1 Si 94.8147 19.1409 1.61899 0
494 1 Si 184.879 35.9489 1.61831 0
495 1 Si 188.386 36.8371 1.63432 0
496 1 Si 200.989 35.4714 1.63759 0
497 1 Si 204.253 36.2138 1.64194 0
498 1 Si 11.4484 19.2868 1.62689 0
499 1 Si 8.33438 20.8096 1.63002 0
500 1 Si 111.348 37.8326 1.62598 0
501 1 Si 105.781 39.1049 1.63336 0
502 1 Si 108.965 40.0998 1.61193 0
503 1 Si 114.333 39.0827 1.62154 0
504 1 Si 29.8895 19.8337 1.63237 0
505 1 Si 24.235 19.4272 1.6301 0
506 1 Si 26.9243 21.0825 1.64115 0
507 1 Si 35.6469 19.3502 1.62923 0
508 1 Si 32.8186 21.2123 1.62513 0
509 1 Si 38.3646 21.3885 1.62757 0
510 1 Si 41.3593 19.8661 1.64847 0
511 1 Si 46.7658 17.9699 1.63799 0
512 1 Si 134.844 38.3645 1.62713 0
513 1 Si 131.799 39.4039 1.60533 0
514 1 Si 58.714 17.7793 1.63572 0
515 1 Si 151.63 39.8373 1.62372 0
516 1 Si 77.0979 18.718 1.60883 0
517 1 Si 80.2123 18.7333 1.64358 0
518 1 Si 166.308 38.9882 1.61397 0
519 1 Si 169.479 39.4465 1.61108 0
520 1 Si 86.9428 19.0376 1.60481 0
521 1 Si 89.9602 19.7037 1.617 0
522 1 Si 181.799 37.6582 1.62753 0
523 1 Si 195.417 37.4001 1.62378 0
524 1 Si 190.303 39.7621 1.63864 0
525 1 Si 193.735 40.1344 1.61763 0
526 1 Si 198.65 37.6761 1.63138 0
527 1 Si 14.7265 20.6183 1.61279 0
528 1 Si 21.1781 20.1651 1.63479 0
529 1 Si 205.192 39.3898 1.61469 0
530 1 Si 2.10327 41.1701 1.62482 0
531 1 Si 5.73212 36.5117 1.61503 0
532 1 Si 5.1894 39.8217 1.63008 0
533 1 Si 103.306 41.2584 1.61496 0
534 1 Si 99.532 36.8325 1.63102 0
535 1 Si 100.365 39.9364 1.61856 0
536 1 Si 52.8069 20.1221 1.64443 0
537 1 Si 46.9872 21.1339 1.6285 0
538 1 Si 50.051 22.5182 1.63635 0
539 1 Si 56.2139 20.5452 1.64178 0
540 1 Si 154.628 41.1544 1.63055 0
541 1 Si 74.3561 20.2098 1.62312 0
542 1 Si 70.0702 22.8133 1.62755 0
543 1 Si 73.6101 23.2232 1.62774 0
544 1 Si 160.839 42.0694 1.61872 0
545 1 Si 165.875 42.1347 1.62314 0
546 1 Si 163.432 44.1059 1.63435 0
547 1 Si 81.5973 21.6271 1.63326 0
548 1 Si 84.8306 21.3852 1.64364 0
549 1 Si 176.089 41.6858 1.63433 0
550 1 Si 168.949 42.5462 1.62137 0
551 1 Si 173.939 44.2134 1.60968 0
552 1 Si 170.835 44.9925 1.62819 0
553 1 Si 182.304 40.8657 1.6242 0
554 1 Si 179.368 42.4699 1.61838 0
555 1 Si 91.5262 22.4109 1.62096 0
556 1 Si 94.6568 22.3361 1.61844 0
557 1 Si 185.238 42.5703 1.61458 0
558 1 Si 188.671 42.6329 1.64185 0
559 1 Si 8.48181 24.2655 1.62101 0
560 1 Si 199.531 40.7141 1.62737 0
561 1 Si 202.697 41.4742 1.61578 0
562 1 Si 20.3617 23.2359 1.62921 0
563 1 Si 16.9565 23.5378 1.62113 0
564 1 Si 110.59 42.9784 1.62466 0
565 1 Si 109.265 45.9634 1.62433 0
566 1 Si 105.906 46.3439 1.62602 0
567 1 Si 102.988 44.5742 1.63252 0
568 1 Si 113.808 42.3246 1.61233 0
569 1 Si 26.3688 24.1935 1.62866 0
570 1 Si 23.1557 25.1551 1.62381 0
571 1 Si 32.3944 24.4732 1.64638 0
572 1 Si 29.3039 25.726 1.63981 0
573 1 Si 38.0681 24.8588 1.63457 0
574 1 Si 35.0694 26.4007 1.63619 0
575 1 Si 119.132 42.517 1.63323 0
576 1 Si 116.4 44.2108 1.62823 0
577 1 Si 43.9004 22.2713 1.63811 0
578 1 Si 124.572 42.6404 1.62365 0
579 1 Si 121.758 44.2452 1.63851 0
580 1 Si 130.877 42.5455 1.64098 0
581 1 Si 127.724 43.6866 1.6331 0
582 1 Si 62.9281 23.2964 1.63063 0
583 1 Si 56.8305 23.9104 1.64715 0
584 1 Si 59.9661 24.6212 1.61932 0
585 1 Si 68.379 25.5702 1.64109 0
586 1 Si 65.1022 25.6807 1.61297 0
587 1 Si 133.598 44.4827 1.64122 0
588 1 Si 76.5223 25.1711 1.62174 0
589 1 Si 79.8885 24.5139 1.63343 0
590 1 Si 86.4527 24.0739 1.62641 0
591 1 Si 89.5328 24.7432 1.62594 0
592 1 Si 155.612 44.3111 1.63302 0
593 1 Si 150.554 47.1273 1.65151 0
594 1 Si 153.869 47.1457 1.63036 0
595 1 Si 158.854 44.6239 1.625 0
596 1 Si 96.8677 24.697 1.63174 0
597 1 Si 10.2086 27.1979 1.63882 0
598 1 Si 16.5452 26.9271 1.62427 0
599 1 Si 13.3836 28.1709 1.6205 0
600 1 Si 180.567 45.4601 1.63125 0
601 1 Si 183.813 45.4544 1.62526 0
602 1 Si 196.527 42.0468 1.62612 0
603 1 Si 43.7372 25.6513 1.63701 0
604 1 Si 40.6737 27.0202 1.6506 0
605 1 Si 203.867 44.4995 1.60716 0
606 1 Si 1.46334 44.497 1.62613 0
607 1 Si 49.613 26.0537 1.62261 0
608 1 Si 46.5038 27.651 1.62905 0
609 1 Si 55.2608 26.9915 1.62396 0
610 1 Si 52.1543 28.3372 1.62734 0
611 1 Si 160.261 47.5652 1.63439 0
612 1 Si 163.499 47.4601 1.61471 0
613 1 Si 69.8719 28.4363 1.62374 0
614 1 Si 63.2691 28.3529 1.62667 0
615 1 Si 67.7662 30.881 1.62521 0
616 1 Si 64.5566 31.2354 1.62396 0
617 1 Si 75.9656 28.4586 1.62179 0
618 1 Si 72.9217 29.5714 1.6324 0
619 1 Si 173.665 47.4292 1.61006 0
620 1 Si 178.981 48.2527 1.61695 0
621 1 Si 175.998 49.5173 1.62798 0
622 1 Si 81.9117 27.1142 1.63228 0
623 1 Si 85.0523 26.836 1.64757 0
624 1 Si 190.588 45.4516 1.6346 0
625 1 Si 185.506 48.1616 1.64011 0
626 1 Si 188.712 48.1402 1.62732 0
627 1 Si 197.142 45.2255 1.64285 0
628 1 Si 193.837 46.4372 1.62507 0
629 1 Si 90.2188 27.7762 1.62831 0
630 1 Si 95.9321 27.9763 1.63261 0
631 1 Si 92.9429 29.3174 1.62457 0
632 1 Si 200.758 46.0669 1.6296 0
633 1 Si 111.297 48.6854 1.63427 0
634 1 Si 109.131 50.9744 1.62959 0
635 1 Si 106.18 49.5466 1.6268 0
636 1 Si 8.64011 30.1255 1.61707 0
637 1 Si 116.853 47.4078 1.61149 0
638 1 Si 114.518 49.7996 1.66364 0
639 1 Si 22.7505 28.4246 1.62155 0
640 1 Si 19.3524 29.1306 1.62513 0
641 1 Si 120.102 47.0322 1.63116 0
642 1 Si 28.8484 28.8936 1.61791 0
643 1 Si 25.7747 30.0525 1.61438 0
644 1 Si 127.676 46.8618 1.63397 0
645 1 Si 121.953 49.5392 1.63211 0
646 1 Si 125.001 48.5521 1.63724 0
647 1 Si 34.5231 29.7159 1.62424 0
648 1 Si 31.4291 30.9488 1.64125 0
649 1 Si 133.393 47.7408 1.6353 0
650 1 Si 130.352 48.6265 1.62928 0
651 1 Si 40.258 30.3946 1.63467 0
652 1 Si 37.1631 31.6931 1.62896 0
653 1 Si 138.761 48.3914 1.63704 0
654 1 Si 135.855 49.8752 1.6362 0
655 1 Si 60.1507 27.8221 1.6188 0
656 1 Si 57.4316 29.4878 1.63262 0
657 1 Si 144.225 48.9063 1.63263 0
658 1 Si 141.339 50.2629 1.64046 0
659 1 Si 149.44 50.1681 1.63791 0
660 1 Si 146.447 51.1116 1.63965 0
661 1 Si 155.446 50.1302 1.62541 0
662 1 Si 158.695 50.419 1.64334 0
663 1 Si 78.2395 30.904 1.62561 0
664 1 Si 81.3789 30.3026 1.63772 0
665 1 Si 170.529 48.1823 1.60917 0
666 1 Si 87.3301 29.0211 1.62804 0
667 1 Si 180.695 50.9123 1.62782 0
668 1 Si 183.865 50.9479 1.62686 0
669 1 Si 97.5208 30.8384 1.61897 0
670 1 Si 165.252 50.4454 1.62679 0
671 1 Si 168.653 50.9415 1.62991 0
672 1 Si 13.1812 31.446 1.62071 0
673 1 Si 10.3053 32.8581 1.63173 0
674 1 Si 201.867 49.1266 1.63997 0
675 1 Si 193.178 49.6501 1.61621 0
676 1 Si 198.817 50.5405 1.59249 0
677 1 Si 195.675 51.5484 1.64619 0
678 1 Si 18.6712 32.3834 1.60895 0
679 1 Si 15.6272 33.4306 1.62654 0
680 1 Si 205.305 50.1216 1.64091 0
681 1 Si 2.91631 49.9911 1.61549 0
682 1 Si 4.18329 46.9538 1.62309 0
683 1 Si 110.751 53.8666 1.63213 0
684 1 Si 115.443 53.0839 1.60834 0
685 1 Si 113.474 55.7375 1.59443 0
686 1 Si 46.0006 31.1367 1.65818 0
687 1 Si 42.8858 32.5251 1.64382 0
688 1 Si 150.876 52.9946 1.63585 0
689 1 Si 154.009 53.0733 1.63341 0
690 1 Si 51.6048 31.8678 1.64152 0
691 1 Si 48.5445 33.4287 1.6588 0
692 1 Si 57.1034 32.7865 1.63114 0
693 1 Si 54.0702 34.2224 1.62765 0
694 1 Si 69.534 33.4539 1.62992 0
695 1 Si 63.0336 34.1287 1.62186 0
696 1 Si 68.4522 36.3769 1.63378 0
697 1 Si 65.2509 36.5514 1.61678 0
698 1 Si 72.6169 32.7646 1.61696 0
699 1 Si 77.8035 34.1404 1.63826 0
700 1 Si 74.7745 35.0748 1.6403 0
701 1 Si 175.626 52.7602 1.61727 0
702 1 Si 178.751 53.4328 1.62195 0
703 1 Si 86.8191 32.0847 1.62836 0
704 1 Si 83.6681 32.6717 1.63807 0
705 1 Si 160.183 53.3967 1.64987 0
706 1 Si 163.518 53.4023 1.63373 0
707 1 Si 190.192 51.0062 1.62594 0
708 1 Si 92.354 32.5105 1.62202 0
709 1 Si 89.4347 33.987 1.63391 0
710 1 Si 8.91828 35.8143 1.61571 0
711 1 Si 199.61 53.5204 1.63274 0
712 1 Si 205.126 53.1959 1.60761 0
713 1 Si 202.406 54.6117 1.6012 0
714 1 Si 27.1649 33.0066 1.62365 0
715 1 Si 19.8023 35.4306 1.63356 0
716 1 Si 25.5239 35.6062 1.62365 0
717 1 Si 22.6311 36.6625 1.62745 0
718 1 Si 108.489 55.8821 1.64754 0
719 1 Si 105.921 54.1064 1.59323 0
720 1 Si 103.922 51.7074 1.64599 0
721 1 Si 30.2893 34.0035 1.61709 0
722 1 Si 121.168 52.7125 1.63607 0
723 1 Si 118.411 54.496 1.61585 0
724 1 Si 126.057 51.4062 1.61092 0
725 1 Si 124.16 53.8436 1.62207 0
726 1 Si 129.155 51.4734 1.62814 0
727 1 Si 59.7797 34.7625 1.64368 0
728 1 Si 135.604 53.1671 1.64066 0
729 1 Si 129.87 54.4342 1.63172 0
730 1 Si 132.995 55.118 1.62731 0
731 1 Si 141.019 53.4335 1.62751 0
732 1 Si 138.272 54.9465 1.63344 0
733 1 Si 146.094 54.2775 1.64005 0
734 1 Si 143.28 55.6721 1.61316 0
735 1 Si 83.0827 35.8392 1.64335 0
736 1 Si 79.9509 36.5873 1.64453 0
737 1 Si 148.957 55.5561 1.63317 0
738 1 Si 155.126 56.1438 1.64967 0
739 1 Si 158.408 56.2617 1.64676 0
740 1 Si 95.4299 33.3733 1.6248 0
741 1 Si 170.097 54.1535 1.62569 0
742 1 Si 173.38 55.183 1.63817 0
743 1 Si 185.287 53.8321 1.63288 0
744 1 Si 188.549 53.9312 1.63389 0
745 1 Si 180.049 56.2837 1.61995 0
746 1 Si 183.288 56.3845 1.63422 0
747 1 Si 15.2606 36.6074 1.61211 0
748 1 Si 10.1089 38.8093 1.61434 0
749 1 Si 13.2315 39.0761 1.62991 0
750 1 Si 194.61 54.5927 1.59533 0
751 1 Si 197.494 55.688 1.61217 0
752 1 Si 18.0276 38.1126 1.59805 0
753 1 Si 36.7518 34.9049 1.60537 0
754 1 Si 31.3701 37.2004 1.63512 0
755 1 Si 34.5978 37.2783 1.62078 0
756 1 Si 107.626 58.8286 1.60718 0
757 1 Si 105.096 57.0729 1.60122 0
758 1 Si 42.3753 35.9154 1.63143 0
759 1 Si 39.2478 36.9133 1.60379 0
760 1 Si 48.0359 36.9836 1.62882 0
761 1 Si 44.8348 38.2639 1.63004 0
762 1 Si 53.6485 37.6976 1.62968 0
763 1 Si 50.6151 39.3479 1.62436 0
764 1 Si 149.734 58.6636 1.6298 0
765 1 Si 153.091 58.8196 1.63911 0
766 1 Si 70.7507 38.6464 1.63086 0
767 1 Si 73.9071 38.1569 1.64152 0
768 1 Si 164.802 56.532 1.6356 0
769 1 Si 168.103 56.8576 1.64343 0
770 1 Si 88.6225 37.1309 1.63221 0
771 1 Si 85.4689 38.0651 1.63348 0
772 1 Si 174.666 58.4379 1.63717 0
773 1 Si 178.121 58.8811 1.60505 0
774 1 Si 96.2701 36.453 1.62814 0
775 1 Si 94.1164 38.9105 1.62095 0
776 1 Si 90.9248 39.3673 1.62786 0
777 1 Si 189.537 57.1377 1.62208 0
778 1 Si 192.765 57.1978 1.63447 0
779 1 Si 205.872 56.1669 1.6461 0
780 1 Si 203.163 57.6082 1.59475 0
781 1 Si 26.5882 38.5172 1.61012 0
782 1 Si 23.6595 39.6116 1.61757 0
783 1 Si 2.64685 57.4887 1.62988 0
784 1 Si 4.95876 55.3519 1.59332 0
785 1 Si 5.55843 52.2321 1.62376 0
786 1 Si 198.017 58.6814 1.62278 0
787 1 Si 200.937 59.7368 1.63653 0
788 1 Si 118.136 57.8384 1.62109 0
789 1 Si 114.848 58.8831 1.62573 0
790 1 Si 29.3992 39.9457 1.62575 0
791 1 Si 37.0731 39.2643 1.62741 0
792 1 Si 126.84 55.6452 1.62312 0
793 1 Si 127.369 58.7932 1.63372 0
794 1 Si 120.904 59.7828 1.64106 0
795 1 Si 124.313 60.0579 1.60783 0
796 1 Si 59.215 37.9383 1.62477 0
797 1 Si 56.4223 39.5776 1.62564 0
798 1 Si 64.5707 39.6277 1.63755 0
799 1 Si 61.4949 40.146 1.64504 0
800 1 Si 133.297 58.3004 1.62371 0
801 1 Si 130.603 60.0839 1.63596 0
802 1 Si 69.8483 41.6401 1.62666 0
803 1 Si 66.7162 41.9237 1.63294 0
804 1 Si 138.819 58.1269 1.61984 0
805 1 Si 136.141 59.8637 1.62202 0
806 1 Si 142.032 58.6396 1.63189 0
807 1 Si 79.1052 39.7441 1.64212 0
808 1 Si 75.9751 40.6419 1.63379 0
809 1 Si 143.832 61.3746 1.62854 0
810 1 Si 147.345 61.1065 1.61645 0
811 1 Si 84.6472 41.2228 1.62973 0
812 1 Si 81.4501 41.9936 1.63828 0
813 1 Si 159.64 59.3479 1.64457 0
814 1 Si 162.935 59.404 1.64123 0
815 1 Si 95.1758 41.9552 1.61791 0
816 1 Si 98.3071 42.3936 1.61485 0
817 1 Si 169.22 59.9887 1.62232 0
818 1 Si 172.352 60.9529 1.61097 0
819 1 Si 8.15025 41.4259 1.60993 0
820 1 Si 184.206 59.4349 1.62196 0
821 1 Si 187.586 59.9459 1.64386 0
822 1 Si 17.6441 41.2922 1.64644 0
823 1 Si 14.5283 42.0042 1.61944 0
824 1 Si 194.977 59.521 1.621 0
825 1 Si 22.9974 42.686 1.63176 0
826 1 Si 19.8761 43.5567 1.62298 0
827 1 Si 107.583 61.9257 1.62864 0
828 1 Si 113.438 62.2974 1.62708 0
829 1 Si 110.299 63.5037 1.61676 0
830 1 Si 44.0987 41.6772 1.64504 0
831 1 Si 37.5084 42.4104 1.6326 0
832 1 Si 40.8598 42.9957 1.61076 0
833 1 Si 50.0807 42.9953 1.63892 0
834 1 Si 46.702 43.9777 1.6338 0
835 1 Si 57.3877 42.7711 1.63129 0
836 1 Si 52.5221 45.7722 1.61809 0
837 1 Si 55.9946 45.7129 1.63219 0
838 1 Si 154.414 61.8356 1.64845 0
839 1 Si 157.731 62.1507 1.64535 0
840 1 Si 60.6127 43.1454 1.62774 0
841 1 Si 164.065 62.5516 1.63585 0
842 1 Si 167.312 62.6558 1.6339 0
843 1 Si 71.5476 44.3392 1.62962 0
844 1 Si 74.8218 43.7482 1.63523 0
845 1 Si 181.01 60.6812 1.62907 0
846 1 Si 188.998 63.0692 1.64589 0
847 1 Si 194.965 62.6214 1.63181 0
848 1 Si 192.167 64.1084 1.61646 0
849 1 Si 87.0529 43.4876 1.63509 0
850 1 Si 90.1508 42.5308 1.62183 0
851 1 Si 2.71248 60.6496 1.60798 0
852 1 Si 200.818 62.8466 1.62586 0
853 1 Si 0.645082 63.1978 1.62294 0
854 1 Si 203.541 64.4141 1.61775 0
855 1 Si 9.64324 44.5156 1.62739 0
856 1 Si 7.9381 47.3473 1.63329 0
857 1 Si 5.9897 60.4602 1.62134 0
858 1 Si 7.3346 57.4661 1.61408 0
859 1 Si 105.107 63.9157 1.61604 0