ITEM: TIMESTEP
1788
ITEM: NUMBER OF ATOMS
15576
ITEM: BOX BOUNDS pp pp pp
0.0000000000000000e+00 2.0603463094975473e+02
0.0000000000000000e+00 1.7584711687085345e+02
-1.0000000000000000e+02 1.0000000000000000e+02
ITEM: ATOMS id type element x y z v_uncoordination
1 1 Si 154.923 38.8825 1.62803 0
2 1 Si 153.907 35.5787 1.63675 0
3 1 Si 153.786 42.0417 1.62139 0
4 1 Si 150.522 34.6934 1.62475 0
5 1 Si 147.882 37.0482 1.64943 0
6 1 Si 148.263 40.4749 1.62501 0
7 1 Si 150.675 42.8099 1.62216 0
8 1 Si 157.936 40.081 1.60579 0
9 1 Si 160.757 36.1524 1.54018 0
10 1 Si 161.646 33.4235 1.65925 0
11 1 Si 160.919 39.1122 1.64481 0
12 1 Si 156.191 32.9791 1.58578 0
13 1 Si 159.2 31.6497 1.56516 0
14 1 Si 158.687 43.2274 1.63294 0
15 1 Si 155.869 44.6899 1.62834 0
16 1 Si 163.951 35.5906 1.54942 0
17 1 Si 164.579 32.6065 1.5847 0
18 1 Si 163.948 40.0353 1.65339 0
19 1 Si 164.519 43.1236 1.62001 0
20 1 Si 161.633 44.7483 1.61844 0
21 1 Si 166.172 37.7701 1.63825 0
22 1 Si 112.27 5.98575 1.62814 0
23 1 Si 115.265 7.02245 1.63589 0
24 1 Si 109.642 7.70441 1.62661 0
25 1 Si 116.057 10.0241 1.60127 0
26 1 Si 110.405 10.7364 1.61344 0
27 1 Si 113.398 11.5666 1.61457 0
28 1 Si 112.437 2.86095 1.64472 0
29 1 Si 117.258 4.62908 1.61849 0
30 1 Si 115.502 1.9999 1.63055 0
31 1 Si 106.589 6.76453 1.60033 0
32 1 Si 106.783 3.23078 1.63175 0
33 1 Si 109.701 1.2396 1.63474 0
34 1 Si 121.281 8.18932 1.65643 0
35 1 Si 120.77 11.4272 1.63912 0
36 1 Si 120.39 5.06163 1.63734 0
37 1 Si 117.908 12.5955 1.63599 0
38 1 Si 124.242 8.82312 1.57848 0
39 1 Si 124.864 11.8341 1.57786 0
40 1 Si 122.673 14.0012 1.60198 0
41 1 Si 127.3 9.07922 1.5984 0
42 1 Si 128.532 6.29831 1.56948 0
43 1 Si 127.396 3.25662 1.61513 0
44 1 Si 124.841 1.26593 1.6282 0
45 1 Si 121.698 2.06855 1.61606 0
46 1 Si 127.928 12.1128 1.61131 0
47 1 Si 131.308 8.01435 1.58897 0
48 1 Si 131.826 4.83504 1.61058 0
49 1 Si 130.324 2.03223 1.63316 0
50 1 Si 135.826 8.18553 1.62217 0
51 1 Si 134.886 5.1736 1.61905 0
52 1 Si 133.587 10.4093 1.64305 0
53 1 Si 143.984 5.8598 1.61965 0
54 1 Si 141.357 4.16837 1.63705 0
55 1 Si 138.905 8.62981 1.61669 0
56 1 Si 138.557 5.31754 1.62935 0
57 1 Si 145.25 8.79553 1.63877 0
58 1 Si 140.251 11.6442 1.62291 0
59 1 Si 143.444 11.5146 1.62 0
60 1 Si 144.413 2.72247 1.62107 0
61 1 Si 141.706 1.08074 1.60443 0
62 1 Si 136.606 2.60937 1.63275 0
63 1 Si 149.477 2.9126 1.61376 0
64 1 Si 150.46 6.29464 1.63387 0
65 1 Si 146.818 0.801532 1.62913 0
66 1 Si 148.499 9.05625 1.62947 0
67 1 Si 151.56 0.362681 1.63794 0
68 1 Si 155.876 4.74988 1.64322 0
69 1 Si 153.722 7.24069 1.62289 0
70 1 Si 154.647 1.56419 1.63001 0
71 1 Si 147.705 171.109 1.62836 0
72 1 Si 145.58 173.462 1.63417 0
73 1 Si 150.573 172.937 1.62282 0
74 1 Si 159.141 5.57999 1.62053 0
75 1 Si 161.734 7.70403 1.6284 0
76 1 Si 154.856 10.4349 1.64133 0
77 1 Si 161.372 10.855 1.62935 0
78 1 Si 158.077 11.4033 1.62121 0
79 1 Si 160.99 3.01057 1.63694 0
80 1 Si 159.759 0.0749551 1.64018 0
81 1 Si 156.718 174.918 1.64208 0
82 1 Si 164.14 3.63696 1.62338 0
83 1 Si 164.885 6.75627 1.62132 0
84 1 Si 166.274 1.21397 1.65126 0
85 1 Si 161.921 173.642 1.61813 0
86 1 Si 165.055 174.088 1.60683 0
87 1 Si 170.025 5.24406 1.6336 0
88 1 Si 169.332 2.14668 1.61001 0
89 1 Si 168.012 7.82331 1.6347 0
90 1 Si 174.987 2.70786 1.6183 0
91 1 Si 178.095 1.90146 1.63799 0
92 1 Si 173.222 5.36917 1.63093 0
93 1 Si 180.343 3.98396 1.62744 0
94 1 Si 179.857 7.01938 1.62386 0
95 1 Si 174.19 8.34239 1.62186 0
96 1 Si 177.292 8.73712 1.6262 0
97 1 Si 172.3 1.00917 1.61366 0
98 1 Si 180.439 175.513 1.63544 0
99 1 Si 176.1 173.25 1.60537 0
100 1 Si 173.044 173.899 1.65241 0
101 1 Si 179.156 172.739 1.63841 0
102 1 Si 183.281 2.88352 1.61997 0
103 1 Si 183.654 175.643 1.64655 0
104 1 Si 184.64 5.66765 1.64162 0
105 1 Si 182.745 8.1811 1.60486 0
106 1 Si 189.252 2.87081 1.62906 0
107 1 Si 187.711 5.97699 1.6276 0
108 1 Si 189.196 175.217 1.64121 0
109 1 Si 186.17 173.559 1.63576 0
110 1 Si 192.03 4.37325 1.64296 0
111 1 Si 192.317 7.59952 1.60676 0
112 1 Si 187.631 9.43436 1.63466 0
113 1 Si 190.623 10.3644 1.62493 0
114 1 Si 194.812 2.86018 1.60136 0
115 1 Si 196.614 0.248621 1.64304 0
116 1 Si 192.032 173.209 1.63704 0
117 1 Si 195.422 173.173 1.62446 0
118 1 Si 196.905 5.21504 1.6103 0
119 1 Si 195.473 7.99195 1.62498 0
120 1 Si 199.762 3.99786 1.632 0
121 1 Si 199.758 0.832965 1.6144 0
122 1 Si 202.379 5.6634 1.62395 0
123 1 Si 202.453 8.90189 1.62504 0
124 1 Si 196.719 10.8694 1.62034 0
125 1 Si 199.967 11.1602 1.62811 0
126 1 Si 204.925 3.65644 1.62815 0
127 1 Si 205.25 0.351237 1.63838 0
128 1 Si 202.301 174.718 1.63818 0
129 1 Si 1.21016 5.82146 1.62464 0
130 1 Si 205.723 8.74365 1.62454 0
131 1 Si 4.10642 4.3876 1.62484 0
132 1 Si 4.69936 1.1679 1.61406 0
133 1 Si 2.28035 174.748 1.63727 0
134 1 Si 109.134 13.621 1.63403 0
135 1 Si 106.009 13.5484 1.63301 0
136 1 Si 105.19 10.0435 1.63184 0
137 1 Si 114.014 14.5906 1.60868 0
138 1 Si 116.981 15.6669 1.62678 0
139 1 Si 134.216 13.7456 1.61967 0
140 1 Si 128.907 15.0717 1.63377 0
141 1 Si 131.926 16.0024 1.60997 0
142 1 Si 139.628 14.9465 1.6303 0
143 1 Si 136.614 16.1325 1.62366 0
144 1 Si 149.392 12.3003 1.63844 0
145 1 Si 152.56 12.8873 1.63811 0
146 1 Si 169.231 10.9654 1.61996 0
147 1 Si 163.909 13.0813 1.61986 0
148 1 Si 167.272 13.6919 1.6366 0
149 1 Si 172.512 11.109 1.63498 0
150 1 Si 1.25229 11.5013 1.63297 0
151 1 Si 4.54435 11.2179 1.61388 0
152 1 Si 6.86125 6.03019 1.61856 0
153 1 Si 7.18987 9.22948 1.64044 0
154 1 Si 111.219 16.0134 1.61048 0
155 1 Si 123.556 17.0391 1.62891 0
156 1 Si 117.645 18.9032 1.61758 0
157 1 Si 122.758 20.1347 1.63263 0
158 1 Si 119.935 21.5538 1.63559 0
159 1 Si 126.695 17.3316 1.61517 0
160 1 Si 144.43 14.6058 1.61904 0
161 1 Si 142.238 17.0215 1.61314 0
162 1 Si 147.569 15.1448 1.62828 0
163 1 Si 158.779 14.4965 1.63007 0
164 1 Si 161.845 15.51 1.64021 0
165 1 Si 177.531 11.8201 1.61339 0
166 1 Si 174.824 13.3864 1.60944 0
167 1 Si 182.816 11.2925 1.64314 0
168 1 Si 180.294 13.1626 1.62868 0
169 1 Si 185.779 12.2562 1.62328 0
170 1 Si 194.746 13.5081 1.62981 0
171 1 Si 191.423 13.5802 1.62503 0
172 1 Si 199.865 14.4364 1.61969 0
173 1 Si 196.888 15.9399 1.62129 0
174 1 Si 205.606 14.3868 1.61705 0
175 1 Si 202.67 16.032 1.6349 0
176 1 Si 2.24168 16.1277 1.63129 0
177 1 Si 4.95271 14.3744 1.62628 0
178 1 Si 105.162 16.976 1.61826 0
179 1 Si 102.022 16.5698 1.6481 0
180 1 Si 102.014 10.2107 1.6319 0
181 1 Si 101.28 13.4073 1.61684 0
182 1 Si 111.71 19.1314 1.63979 0
183 1 Si 114.768 20.2502 1.61786 0
184 1 Si 132.759 19.1763 1.61799 0
185 1 Si 127.62 20.3043 1.62092 0
186 1 Si 130.506 21.5106 1.60265 0
187 1 Si 135.992 19.5088 1.62499 0
188 1 Si 153.18 16.1186 1.64197 0
189 1 Si 148.374 18.4314 1.63355 0
190 1 Si 151.542 19.0429 1.63484 0
191 1 Si 156.305 16.4244 1.63776 0
192 1 Si 168.631 16.8051 1.63821 0
193 1 Si 162.459 18.6378 1.63244 0
194 1 Si 164.487 21.1496 1.62383 0
195 1 Si 167.265 19.7037 1.61919 0
196 1 Si 176.537 16.1808 1.63626 0
197 1 Si 171.599 18.3069 1.60089 0
198 1 Si 174.914 18.9217 1.62612 0
199 1 Si 105.932 20.3312 1.62654 0
200 1 Si 109.13 21.0383 1.63674 0
201 1 Si 125.184 22.2177 1.62338 0
202 1 Si 143.156 20.3095 1.63225 0
203 1 Si 137.728 22.5846 1.61875 0
204 1 Si 141.04 22.8639 1.62265 0
205 1 Si 146.45 21.1858 1.63054 0
206 1 Si 157.029 19.3739 1.6047 0
207 1 Si 159.924 20.3432 1.60497 0
208 1 Si 179.887 16.2785 1.60487 0
209 1 Si 185.796 15.5794 1.63052 0
210 1 Si 182.956 17.6003 1.63186 0
211 1 Si 189.099 16.1321 1.6296 0
212 1 Si 196.228 19.2422 1.6377 0
213 1 Si 189.633 19.3707 1.62448 0
214 1 Si 192.87 20.4787 1.62307 0
215 1 Si 202.223 19.3501 1.62925 0
216 1 Si 199.229 20.9746 1.62898 0
217 1 Si 2.00115 19.3073 1.63463 0
218 1 Si 205.146 20.9148 1.64236 0
219 1 Si 103.772 23.037 1.62534 0
220 1 Si 100.367 22.4102 1.62537 0
221 1 Si 100.108 19.1792 1.61987 0
222 1 Si 115.676 23.253 1.60684 0
223 1 Si 110.191 24.0222 1.62035 0
224 1 Si 113.132 25.0093 1.62349 0
225 1 Si 120.693 25.1364 1.60895 0
226 1 Si 116.694 26.1926 1.64271 0
227 1 Si 119.109 28.1324 1.60869 0
228 1 Si 129.228 24.5223 1.63875 0
229 1 Si 131.261 26.9059 1.62551 0
230 1 Si 134.378 27.4055 1.62358 0
231 1 Si 137.26 25.9687 1.62921 0
232 1 Si 152.558 22.301 1.62999 0
233 1 Si 147.704 24.4552 1.6302 0
234 1 Si 151.035 25.3397 1.60962 0
235 1 Si 155.705 22.1782 1.61349 0
236 1 Si 158.667 23.1597 1.6311 0
237 1 Si 160.749 25.4641 1.62009 0
238 1 Si 163.933 24.3995 1.6315 0
239 1 Si 170.036 21.0158 1.59883 0
240 1 Si 176.893 21.7752 1.64211 0
241 1 Si 171.421 23.6981 1.61349 0
242 1 Si 174.539 23.9774 1.60096 0
243 1 Si 5.00124 20.584 1.64145 0
244 1 Si 7.93147 15.4716 1.63009 0
245 1 Si 7.72401 18.7141 1.6391 0
246 1 Si 105.189 26.1465 1.62572 0
247 1 Si 108.529 26.6879 1.62129 0
248 1 Si 125.999 25.2706 1.62254 0
249 1 Si 123.33 27.2119 1.61329 0
250 1 Si 142.259 26.0001 1.63012 0
251 1 Si 145.484 26.9839 1.6551 0
252 1 Si 183.282 20.94 1.62051 0
253 1 Si 180.266 22.9638 1.64038 0
254 1 Si 186.798 21.4164 1.6222 0
255 1 Si 191.548 23.5087 1.61922 0
256 1 Si 188.279 24.2935 1.62948 0
257 1 Si 199.468 24.3486 1.63694 0
258 1 Si 193.497 26.0031 1.6274 0
259 1 Si 196.766 26.2731 1.63779 0
260 1 Si 205.315 24.1727 1.6385 0
261 1 Si 202.472 25.8756 1.63568 0
262 1 Si 2.31124 25.5153 1.63428 0
263 1 Si 5.10112 23.8343 1.64803 0
264 1 Si 103.204 28.8104 1.63785 0
265 1 Si 99.6822 28.7155 1.59938 0
266 1 Si 96.9873 23.3648 1.6057 0
267 1 Si 94.3379 25.5374 1.62096 0
268 1 Si 96.2739 28.2085 1.63347 0
269 1 Si 114.128 27.9996 1.56186 0
270 1 Si 111.069 28.8498 1.63812 0
271 1 Si 130.381 29.9528 1.60308 0
272 1 Si 133.555 30.4967 1.60589 0
273 1 Si 139.833 28.2106 1.62142 0
274 1 Si 158.911 28.2288 1.60755 0
275 1 Si 152.296 28.7326 1.62932 0
276 1 Si 155.718 29.7108 1.624 0
277 1 Si 166.527 26.5136 1.63527 0
278 1 Si 161.911 29.5845 1.56562 0
279 1 Si 165.258 29.441 1.64407 0
280 1 Si 169.859 26.4321 1.59087 0
281 1 Si 173.113 26.8454 1.64084 0
282 1 Si 180.572 26.4148 1.63307 0
283 1 Si 174.83 29.5077 1.62966 0
284 1 Si 178.122 28.751 1.60969 0
285 1 Si 122.555 30.5621 1.6174 0
286 1 Si 119.338 31.5148 1.60576 0
287 1 Si 128.003 32.1944 1.6144 0
288 1 Si 124.745 33.0441 1.6278 0
289 1 Si 146.425 30.3056 1.64542 0
290 1 Si 140.559 31.6347 1.65071 0
291 1 Si 143.873 32.6459 1.63437 0
292 1 Si 149.795 31.2581 1.63648 0
293 1 Si 186.659 27.24 1.6262 0
294 1 Si 183.472 28.1131 1.63593 0
295 1 Si 191.655 28.6719 1.62464 0
296 1 Si 188.675 29.8239 1.61821 0
297 1 Si 196.754 29.4641 1.60684 0
298 1 Si 193.903 30.8077 1.62136 0
299 1 Si 203.061 29.0931 1.62298 0
300 1 Si 198.335 32.2189 1.63293 0
301 1 Si 201.467 31.9144 1.62965 0
302 1 Si 2.7966 28.7183 1.63176 0
303 1 Si 0.0195256 30.2673 1.6289 0
304 1 Si 186.408 54.8268 1.62062 0
305 1 Si 183.529 53.3158 1.63677 0
306 1 Si 189.411 53.8312 1.63105 0
307 1 Si 186.803 49.0485 1.63084 0
308 1 Si 183.743 50.1744 1.62299 0
309 1 Si 189.605 50.6621 1.60632 0
310 1 Si 186.081 57.9384 1.62686 0
311 1 Si 180.662 54.8147 1.60228 0
312 1 Si 182.854 57.3029 1.61881 0
313 1 Si 192.274 55.2451 1.60724 0
314 1 Si 193.864 58.0169 1.62141 0
315 1 Si 188.734 59.828 1.61511 0
316 1 Si 191.946 60.4238 1.63382 0
317 1 Si 5.68004 30.3221 1.63566 0
318 1 Si 7.99249 25.334 1.63687 0
319 1 Si 8.45495 28.6187 1.62314 0
320 1 Si 111.664 32.0393 1.61117 0
321 1 Si 105.236 31.5372 1.63189 0
322 1 Si 108.441 32.756 1.61137 0
323 1 Si 117.651 34.8391 1.65352 0
324 1 Si 114.29 34.2914 1.61674 0
325 1 Si 134.862 33.4457 1.6294 0
326 1 Si 129.385 35.0836 1.62608 0
327 1 Si 132.557 35.8195 1.62782 0
328 1 Si 138.14 34.1213 1.62811 0
329 1 Si 167.551 31.798 1.60544 0
330 1 Si 173.115 32.4334 1.61669 0
331 1 Si 170.078 33.7872 1.63517 0
332 1 Si 179.693 31.5574 1.61914 0
333 1 Si 175.109 34.9582 1.60685 0
334 1 Si 178.246 34.3731 1.62324 0
335 1 Si 182.893 31.3332 1.62232 0
336 1 Si 188.076 33.1203 1.63912 0
337 1 Si 184.857 33.9609 1.64219 0
338 1 Si 123.918 36.4707 1.59509 0
339 1 Si 122.137 39.6398 1.63692 0
340 1 Si 118.809 38.7817 1.63044 0
341 1 Si 127.021 37.2187 1.62956 0
342 1 Si 144.597 36.0015 1.6425 0
343 1 Si 138.8 37.4837 1.63248 0
344 1 Si 142.048 38.3144 1.63774 0
345 1 Si 193.596 33.9264 1.63605 0
346 1 Si 190.646 35.2712 1.63516 0
347 1 Si 196.6 34.9668 1.62675 0
348 1 Si 0.157454 33.4233 1.62539 0
349 1 Si 203.247 34.5881 1.60584 0
350 1 Si 9.29928 3.94312 1.60495 0
351 1 Si 7.96484 0.972586 1.63253 0
352 1 Si 2.87809 35.0508 1.62381 0
353 1 Si 5.78906 33.5734 1.62785 0
354 1 Si 12.3887 4.90802 1.63443 0
355 1 Si 13.0382 8.25973 1.63864 0
356 1 Si 10.3488 10.2732 1.62739 0
357 1 Si 13.852 1.90397 1.63853 0
358 1 Si 9.80527 174.164 1.61709 0
359 1 Si 13.0364 174.514 1.6053 0
360 1 Si 19.7721 2.88374 1.60193 0
361 1 Si 16.9258 1.78892 1.58513 0
362 1 Si 20.3995 5.76092 1.59707 0
363 1 Si 18.7969 8.3648 1.60395 0
364 1 Si 16.009 9.91928 1.63244 0
365 1 Si 21.9464 0.722824 1.57567 0
366 1 Si 19.0449 175.389 1.61074 0
367 1 Si 102.964 33.7696 1.614 0
368 1 Si 99.7736 33.7622 1.64575 0
369 1 Si 97.8478 31.3374 1.60879 0
370 1 Si 110.002 35.6369 1.60797 0
371 1 Si 107.632 37.5146 1.64577 0
372 1 Si 104.793 36.2648 1.641 0
373 1 Si 23.4803 5.78194 1.58031 0
374 1 Si 22.0028 8.61112 1.61901 0
375 1 Si 27.5538 1.67059 1.6137 0
376 1 Si 26.3782 4.64855 1.65678 0
377 1 Si 26.7925 174.398 1.61928 0
378 1 Si 23.7413 174.051 1.64941 0
379 1 Si 112.849 37.1486 1.61883 0
380 1 Si 30.667 1.09306 1.62709 0
381 1 Si 32.7176 3.57323 1.65131 0
382 1 Si 31.4294 6.60343 1.61466 0
383 1 Si 28.274 7.17195 1.62854 0
384 1 Si 31.4326 173.772 1.63237 0
385 1 Si 28.8384 171.868 1.6109 0
386 1 Si 35.8143 2.50664 1.63075 0
387 1 Si 38.1498 4.76821 1.64296 0
388 1 Si 32.0436 9.79932 1.62912 0
389 1 Si 37.367 7.95873 1.62739 0
390 1 Si 35.1376 10.4074 1.63315 0
391 1 Si 36.6665 175.158 1.62007 0
392 1 Si 34.4967 172.729 1.62534 0
393 1 Si 41.2618 3.65386 1.62704 0
394 1 Si 41.9379 0.48476 1.63305 0
395 1 Si 39.7061 174.059 1.62704 0
396 1 Si 47.2425 1.3168 1.62096 0
397 1 Si 50.4452 0.94262 1.61756 0
398 1 Si 46.909 4.55057 1.61349 0
399 1 Si 52.4052 3.55935 1.61648 0
400 1 Si 49.9774 5.85845 1.63223 0
401 1 Si 44.8488 174.937 1.61865 0
402 1 Si 51.6173 173.851 1.63732 0
403 1 Si 46.8453 169.542 1.6411 0
404 1 Si 44.3143 171.656 1.62664 0
405 1 Si 49.8608 171.083 1.6075 0
406 1 Si 43.8327 5.69081 1.63386 0
407 1 Si 55.8177 3.32932 1.63565 0
408 1 Si 57.2529 0.269096 1.62685 0
409 1 Si 54.8962 173.827 1.6258 0
410 1 Si 133.317 39.0344 1.63323 0
411 1 Si 136.453 40.0316 1.62706 0
412 1 Si 127.845 40.1993 1.59967 0
413 1 Si 130.854 41.1308 1.60166 0
414 1 Si 57.7259 6.07045 1.6279 0
415 1 Si 50.4432 9.123 1.62757 0
416 1 Si 56.4189 9.0286 1.63503 0
417 1 Si 53.4694 10.3983 1.62951 0
418 1 Si 63.1374 1.63357 1.6273 0
419 1 Si 63.5141 4.95626 1.62877 0
420 1 Si 60.5721 175.191 1.63276 0
421 1 Si 60.9543 6.86966 1.62978 0
422 1 Si 66.3559 1.12031 1.59934 0
423 1 Si 68.1803 3.72136 1.61973 0
424 1 Si 66.5281 6.38837 1.62548 0
425 1 Si 68.9558 175.023 1.63427 0
426 1 Si 64.6707 170.946 1.62049 0
427 1 Si 61.3158 171.81 1.63522 0
428 1 Si 67.9148 172.005 1.62492 0
429 1 Si 71.3349 3.43094 1.63262 0
430 1 Si 73.4071 5.86973 1.63556 0
431 1 Si 71.8501 8.72444 1.628 0
432 1 Si 68.5275 9.02009 1.63724 0
433 1 Si 72.0943 0.331713 1.61521 0
434 1 Si 76.6841 5.45434 1.6284 0
435 1 Si 77.7997 2.28236 1.62931 0
436 1 Si 75.4173 175.65 1.63974 0
437 1 Si 83.3498 4.39877 1.62512 0
438 1 Si 86.783 4.3339 1.62299 0
439 1 Si 81.9492 7.53998 1.62012 0
440 1 Si 86.6908 7.72521 1.6111 0
441 1 Si 84.1213 10.0479 1.62902 0
442 1 Si 81.2079 1.72812 1.62383 0
443 1 Si 89.6031 1.77769 1.63802 0
444 1 Si 85.6064 173.254 1.62664 0
445 1 Si 82.2866 174.319 1.62808 0
446 1 Si 88.8008 174.382 1.6235 0
447 1 Si 78.6564 8.20472 1.6318 0
448 1 Si 94.8209 4.65624 1.63074 0
449 1 Si 92.5566 7.08592 1.60708 0
450 1 Si 93.2107 1.77878 1.62282 0
451 1 Si 89.6952 8.70248 1.64745 0
452 1 Si 169.338 37.0645 1.62178 0
453 1 Si 98.3154 4.92422 1.63878 0
454 1 Si 99.6209 7.94822 1.61155 0
455 1 Si 94.2842 9.66792 1.62416 0
456 1 Si 97.3159 10.0781 1.61558 0
457 1 Si 100.645 2.40739 1.60624 0
458 1 Si 95.6857 175.157 1.61382 0
459 1 Si 99.0834 175.382 1.61759 0
460 1 Si 174.643 38.1846 1.61733 0
461 1 Si 171.59 39.5356 1.63611 0
462 1 Si 103.975 1.46394 1.61712 0
463 1 Si 179.992 37.0771 1.61747 0
464 1 Si 177.697 39.4433 1.63593 0
465 1 Si 183.313 36.9745 1.64064 0
466 1 Si 190.918 38.5721 1.63293 0
467 1 Si 184.644 40.0389 1.63274 0
468 1 Si 188.128 40.5871 1.6162 0
469 1 Si 197.121 38.1551 1.65366 0
470 1 Si 194.16 39.7349 1.62689 0
471 1 Si 27.1256 10.1718 1.62767 0
472 1 Si 23.9888 11.0609 1.62021 0
473 1 Si 113.754 40.2674 1.6297 0
474 1 Si 108.655 40.4463 1.62386 0
475 1 Si 111.228 42.1558 1.63275 0
476 1 Si 123.491 43.5269 1.66492 0
477 1 Si 126.605 43.0605 1.61264 0
478 1 Si 29.6705 12.094 1.62323 0
479 1 Si 116.671 41.7129 1.59988 0
480 1 Si 42.9245 8.78305 1.63158 0
481 1 Si 39.891 9.83599 1.62238 0
482 1 Si 48.0503 11.4069 1.61532 0
483 1 Si 44.8929 11.2393 1.64168 0
484 1 Si 142.641 41.6159 1.64649 0
485 1 Si 136.959 43.4539 1.64415 0
486 1 Si 140.292 43.9949 1.64327 0
487 1 Si 58.8484 11.1168 1.62507 0
488 1 Si 61.7943 10.0062 1.62218 0
489 1 Si 145.788 42.6052 1.62762 0
490 1 Si 77.1791 11.2898 1.61425 0
491 1 Si 73.9219 11.1909 1.62974 0
492 1 Si 83.3779 13.7528 1.62451 0
493 1 Si 77.6658 14.6692 1.63379 0
494 1 Si 80.7321 16.0214 1.6274 0
495 1 Si 89.414 11.8679 1.60271 0
496 1 Si 92.4876 12.1156 1.63579 0
497 1 Si 98.2062 13.0509 1.6247 0
498 1 Si 203.028 37.7533 1.63241 0
499 1 Si 200.252 39.3013 1.62537 0
500 1 Si 10.6286 13.5367 1.64225 0
501 1 Si 16.5795 13.2509 1.62492 0
502 1 Si 13.6262 14.8911 1.6286 0
503 1 Si 2.49898 38.2365 1.62756 0
504 1 Si 205.693 39.6339 1.63586 0
505 1 Si 22.956 14.151 1.62139 0
506 1 Si 19.6053 14.997 1.62878 0
507 1 Si 5.23091 39.7576 1.6182 0
508 1 Si 8.73671 35.1282 1.62439 0
509 1 Si 8.09324 38.3313 1.61377 0
510 1 Si 103.353 38.9082 1.63942 0
511 1 Si 98.2533 36.461 1.61448 0
512 1 Si 100.34 38.7236 1.62142 0
513 1 Si 105.644 40.9296 1.64663 0
514 1 Si 38.8724 12.852 1.63737 0
515 1 Si 35.7999 13.6396 1.61103 0
516 1 Si 53.4558 13.6429 1.609 0
517 1 Si 48.2016 14.6573 1.63444 0
518 1 Si 51.0893 15.8084 1.61986 0
519 1 Si 58.8713 14.2661 1.63446 0
520 1 Si 55.9643 15.6115 1.61943 0
521 1 Si 67.2936 12.0643 1.64242 0
522 1 Si 64.0206 12.3495 1.63389 0
523 1 Si 129.6 44.0647 1.63588 0
524 1 Si 134.693 46.2689 1.62929 0
525 1 Si 131.246 46.8033 1.62666 0
526 1 Si 72.6165 14.0562 1.62233 0
527 1 Si 69.4559 14.5456 1.62529 0
528 1 Si 85.7416 16.155 1.62714 0
529 1 Si 88.5596 14.8782 1.65735 0
530 1 Si 170.783 42.8493 1.62558 0
531 1 Si 167.666 44.1654 1.61222 0
532 1 Si 93.3489 15.0106 1.62688 0
533 1 Si 96.3445 15.535 1.62783 0
534 1 Si 178.662 42.5904 1.62885 0
535 1 Si 173.002 45.4056 1.6235 0
536 1 Si 176.46 45.3524 1.62259 0
537 1 Si 182.119 42.4562 1.62222 0
538 1 Si 189.011 43.829 1.62904 0
539 1 Si 183.202 45.4727 1.62342 0
540 1 Si 186.464 45.8902 1.62324 0
541 1 Si 194.664 42.9284 1.62594 0
542 1 Si 192.165 44.9731 1.61059 0
543 1 Si 202.122 41.9985 1.61762 0
544 1 Si 197.395 44.6448 1.60339 0
545 1 Si 200.57 44.647 1.63925 0
546 1 Si 25.7023 16.1928 1.62325 0
547 1 Si 29.0269 15.3323 1.6398 0
548 1 Si 205.324 42.8095 1.61586 0
549 1 Si 110.513 45.2574 1.63503 0
550 1 Si 107.387 45.7348 1.61159 0
551 1 Si 104.904 43.825 1.61244 0
552 1 Si 43.7194 14.1711 1.61546 0
553 1 Si 40.8307 15.2671 1.62181 0
554 1 Si 115.813 45.2723 1.63149 0
555 1 Si 117.881 47.7424 1.61546 0
556 1 Si 120.84 48.9476 1.63062 0
557 1 Si 123.745 47.515 1.64027 0
558 1 Si 112.888 47.3623 1.63007 0
559 1 Si 45.6709 16.6153 1.59325 0
560 1 Si 62.0477 14.9598 1.62763 0
561 1 Si 146.874 45.7493 1.63436 0
562 1 Si 141.423 47.0799 1.62869 0
563 1 Si 144.567 48.0594 1.61666 0
564 1 Si 150.155 46.1235 1.6152 0
565 1 Si 74.7668 16.4122 1.59608 0
566 1 Si 86.7337 19.4331 1.63524 0
567 1 Si 81.2053 19.5179 1.61318 0
568 1 Si 84.1122 21.137 1.61559 0
569 1 Si 90.9419 16.933 1.62031 0
570 1 Si 13.4033 18.1557 1.64173 0
571 1 Si 10.6582 20.0116 1.63786 0
572 1 Si 19.2606 18.3204 1.62606 0
573 1 Si 16.2635 19.6543 1.64108 0
574 1 Si 24.9973 19.4047 1.65276 0
575 1 Si 21.8388 20.3965 1.65285 0
576 1 Si 1.23241 45.6004 1.64153 0
577 1 Si 4.61013 45.7886 1.63756 0
578 1 Si 5.98653 42.8214 1.63439 0
579 1 Si 34.9413 16.8761 1.63253 0
580 1 Si 31.6105 17.5385 1.62088 0
581 1 Si 40.5392 18.4521 1.61218 0
582 1 Si 37.3404 19.3868 1.62895 0
583 1 Si 105.169 47.8739 1.63559 0
584 1 Si 102.339 46.5913 1.61729 0
585 1 Si 101.785 43.5685 1.61653 0
586 1 Si 51.4786 19.0114 1.61769 0
587 1 Si 54.775 18.6527 1.62652 0
588 1 Si 136.087 49.3574 1.62194 0
589 1 Si 129.349 49.6578 1.60081 0
590 1 Si 131.132 52.4871 1.61624 0
591 1 Si 134.52 52.3658 1.62825 0
592 1 Si 69.2696 17.7866 1.62139 0
593 1 Si 62.9424 18.0387 1.63025 0
594 1 Si 66.1542 19.0715 1.62071 0
595 1 Si 139.408 49.6073 1.62072 0
596 1 Si 72.4927 18.8619 1.62941 0
597 1 Si 155.778 48.0642 1.63005 0
598 1 Si 152.363 48.8341 1.63394 0
599 1 Si 91.8788 19.9473 1.64802 0
600 1 Si 89.3336 21.7409 1.62506 0
601 1 Si 161.884 48.0724 1.61695 0
602 1 Si 158.923 49.8613 1.62853 0
603 1 Si 97.0376 18.5329 1.60879 0
604 1 Si 94.9423 20.8562 1.60374 0
605 1 Si 167.837 47.4243 1.62475 0
606 1 Si 165.075 49.3262 1.64156 0
607 1 Si 171.063 48.1512 1.61824 0
608 1 Si 30.7134 20.7426 1.63133 0
609 1 Si 27.4583 21.6054 1.64827 0
610 1 Si 181.217 48.119 1.63173 0
611 1 Si 177.8 48.4851 1.6166 0
612 1 Si 194.053 47.698 1.62838 0
613 1 Si 192.848 50.5832 1.6334 0
614 1 Si 43.7545 19.2134 1.63723 0
615 1 Si 197.305 47.8528 1.60943 0
616 1 Si 202.434 47.239 1.60463 0
617 1 Si 200.18 49.4413 1.6153 0
618 1 Si 45.5538 21.8634 1.62381 0
619 1 Si 48.883 21.2039 1.63205 0
620 1 Si 205.46 48.3341 1.63677 0
621 1 Si 60.3444 20.1693 1.60446 0
622 1 Si 57.026 20.9524 1.63499 0
623 1 Si 116.854 50.7853 1.63318 0
624 1 Si 111.643 50.7024 1.62955 0
625 1 Si 114.194 52.7089 1.63876 0
626 1 Si 65.5875 22.2554 1.61419 0
627 1 Si 62.3716 22.6294 1.61406 0
628 1 Si 119.77 52.0505 1.61651 0
629 1 Si 126.036 50.4366 1.61821 0
630 1 Si 73.2752 22.038 1.62764 0
631 1 Si 76.3923 23.2171 1.61816 0
632 1 Si 79.6265 22.4594 1.63503 0
633 1 Si 144.781 51.3473 1.62257 0
634 1 Si 141.517 52.1542 1.61893 0
635 1 Si 151.046 52.0571 1.62643 0
636 1 Si 147.711 53.0995 1.62185 0
637 1 Si 10.4972 23.2707 1.63594 0
638 1 Si 15.8787 22.8159 1.64305 0
639 1 Si 13.302 24.6832 1.62698 0
640 1 Si 21.2095 23.6216 1.64023 0
641 1 Si 18.2688 24.8357 1.62842 0
642 1 Si 6.87282 48.4143 1.62482 0
643 1 Si 8.82937 41.4235 1.61667 0
644 1 Si 11.05 43.6741 1.62278 0
645 1 Si 10.3041 47.0818 1.61838 0
646 1 Si 105.928 50.8318 1.61092 0
647 1 Si 103.085 52.0715 1.62344 0
648 1 Si 99.4772 47.6018 1.62496 0
649 1 Si 100.417 50.5647 1.6277 0
650 1 Si 108.641 52.4254 1.61666 0
651 1 Si 36.465 22.6606 1.62619 0
652 1 Si 33.0983 23.03 1.63462 0
653 1 Si 44.2883 24.9708 1.62698 0
654 1 Si 38.321 25.5684 1.61597 0
655 1 Si 41.4986 26.8252 1.6358 0
656 1 Si 49.5504 24.2706 1.62655 0
657 1 Si 55.4681 23.9106 1.6349 0
658 1 Si 52.517 25.3657 1.62499 0
659 1 Si 125.929 54.067 1.62477 0
660 1 Si 129.147 55.2024 1.6182 0
661 1 Si 140.019 55.0249 1.62197 0
662 1 Si 136.668 55.0675 1.61361 0
663 1 Si 70.8393 24.354 1.61612 0
664 1 Si 67.5196 24.8885 1.64991 0
665 1 Si 75.772 26.3865 1.62184 0
666 1 Si 72.6039 27.028 1.62766 0
667 1 Si 84.9087 24.3762 1.63397 0
668 1 Si 81.7635 25.0574 1.63106 0
669 1 Si 153.025 54.8075 1.62203 0
670 1 Si 159.368 53.3144 1.63808 0
671 1 Si 156.488 55.3662 1.64385 0
672 1 Si 147.49 56.4626 1.61888 0
673 1 Si 150.695 57.245 1.61868 0
674 1 Si 90.6063 24.9438 1.61912 0
675 1 Si 87.557 26.6207 1.64122 0
676 1 Si 165.643 52.6257 1.63442 0
677 1 Si 162.71 54.5817 1.62858 0
678 1 Si 172.025 51.33 1.63082 0
679 1 Si 169.068 53.4948 1.63535 0
680 1 Si 26.4155 24.7388 1.63776 0
681 1 Si 23.3775 26.0009 1.64178 0
682 1 Si 175.658 51.3535 1.63103 0
683 1 Si 31.743 25.993 1.6277 0
684 1 Si 28.651 26.969 1.63057 0
685 1 Si 177.258 54.3568 1.63451 0
686 1 Si 47.1464 26.4127 1.62146 0
687 1 Si 194.731 53.2288 1.6113 0
688 1 Si 202.343 51.9703 1.62539 0
689 1 Si 197.55 54.8516 1.61269 0
690 1 Si 200.792 54.7562 1.63382 0
691 1 Si 60.7842 25.3347 1.63831 0
692 1 Si 57.7081 26.1099 1.62 0
693 1 Si 205.725 51.644 1.63055 0
694 1 Si 114.027 56.0867 1.62307 0
695 1 Si 106.71 55.2132 1.63586 0
696 1 Si 111.313 58.3113 1.60826 0
697 1 Si 107.819 58.2339 1.62033 0
698 1 Si 65.701 27.7474 1.63064 0
699 1 Si 62.5032 27.9294 1.62441 0
700 1 Si 120.02 55.4397 1.64013 0
701 1 Si 117.056 57.5428 1.60837 0
702 1 Si 123.311 56.5026 1.63525 0
703 1 Si 81.1648 28.2557 1.63698 0
704 1 Si 77.9573 28.739 1.63978 0
705 1 Si 141.72 57.8783 1.62167 0
706 1 Si 136.287 58.3513 1.63502 0
707 1 Si 139.235 59.9968 1.62483 0
708 1 Si 175.451 57.1931 1.63455 0
709 1 Si 169.283 56.8348 1.62472 0
710 1 Si 172.268 58.3522 1.62369 0
711 1 Si 177.736 59.4762 1.61191 0
712 1 Si 180.921 59.6882 1.63385 0
713 1 Si 144.957 58.8342 1.64026 0
714 1 Si 13.855 27.8607 1.63519 0
715 1 Si 11.4435 30.1021 1.61725 0
716 1 Si 17.08 27.8422 1.6343 0
717 1 Si 22.3616 29.1928 1.63144 0
718 1 Si 19.1672 30.28 1.63188 0
719 1 Si 103.439 55.1259 1.62675 0
720 1 Si 2.58559 53.8006 1.6473 0
721 1 Si 6.02531 51.9949 1.63623 0
722 1 Si 33.4076 28.6793 1.61781 0
723 1 Si 36.6257 28.3798 1.62047 0
724 1 Si 130.075 58.5045 1.63067 0
725 1 Si 123.917 59.9705 1.63355 0
726 1 Si 127.34 60.532 1.61386 0
727 1 Si 51.6835 28.5142 1.62168 0
728 1 Si 48.5064 29.3079 1.62659 0
729 1 Si 133.344 59.8865 1.63029 0
730 1 Si 57.0241 29.2314 1.61722 0
731 1 Si 54.0879 30.6332 1.64933 0
732 1 Si 66.0904 31.0148 1.62918 0
733 1 Si 71.471 30.0101 1.62585 0
734 1 Si 69.0277 32.1154 1.62507 0
735 1 Si 157.107 58.6255 1.63043 0
736 1 Si 151.289 60.4454 1.63472 0
737 1 Si 154.582 60.8183 1.63899 0
738 1 Si 86.7311 30.0988 1.62642 0
739 1 Si 83.3287 30.7795 1.64137 0
740 1 Si 163.19 57.9841 1.6348 0
741 1 Si 160.192 59.8471 1.61992 0
742 1 Si 145.52 62.2725 1.6331 0
743 1 Si 148.865 62.8625 1.62728 0
744 1 Si 94.6396 31.1104 1.59136 0
745 1 Si 88.7301 32.9996 1.63189 0
746 1 Si 92.1161 33.5171 1.62565 0
747 1 Si 166.593 58.8779 1.61244 0
748 1 Si 27.7608 30.0887 1.61367 0
749 1 Si 24.7365 31.4674 1.65651 0
750 1 Si 30.9157 30.7647 1.62071 0
751 1 Si 41.7836 30.2505 1.61114 0
752 1 Si 38.6082 30.9358 1.60879 0
753 1 Si 47.3885 32.4431 1.63374 0
754 1 Si 43.9709 32.964 1.63924 0
755 1 Si 197.046 58.018 1.60861 0
756 1 Si 60.1011 30.0703 1.63571 0
757 1 Si 202.188 57.6976 1.6065 0
758 1 Si 199.71 59.7952 1.6263 0
759 1 Si 60.8186 33.086 1.61636 0
760 1 Si 63.9778 33.4918 1.612 0
761 1 Si 2.10592 57.6578 1.64959 0
762 1 Si 205.019 59.2824 1.64214 0
763 1 Si 76.7872 31.6863 1.62817 0
764 1 Si 73.6995 32.1754 1.61986 0
765 1 Si 115.874 60.8417 1.62344 0
766 1 Si 112.446 61.4434 1.61119 0
767 1 Si 121.345 62.7546 1.62129 0
768 1 Si 117.976 63.4335 1.63026 0
769 1 Si 81.7298 33.8207 1.64333 0
770 1 Si 78.3553 34.474 1.61534 0
771 1 Si 139.925 63.2543 1.63557 0
772 1 Si 142.957 64.8352 1.6245 0
773 1 Si 134.269 63.1493 1.624 0
774 1 Si 137.181 65.0238 1.64272 0
775 1 Si 11.7252 33.4685 1.6136 0
776 1 Si 17.9306 33.4078 1.61943 0
777 1 Si 14.8065 34.9144 1.6341 0
778 1 Si 168.33 61.7297 1.6236 0
779 1 Si 158.859 62.9404 1.62416 0
780 1 Si 163.938 65.7511 1.60915 0
781 1 Si 160.708 65.4954 1.64344 0
782 1 Si 166.971 64.6461 1.64779 0
783 1 Si 171.66 61.5985 1.61096 0
784 1 Si 23.607 34.6137 1.61411 0
785 1 Si 20.518 35.3765 1.61388 0
786 1 Si 31.4554 33.7921 1.64978 0
787 1 Si 34.4826 34.6327 1.59993 0
788 1 Si 37.5467 33.9214 1.63745 0
789 1 Si 4.62288 60.0692 1.62525 0
790 1 Si 9.03134 53.7368 1.61315 0
791 1 Si 9.72498 57.007 1.62927 0
792 1 Si 7.9094 59.704 1.62325 0
793 1 Si 105.299 60.6283 1.63015 0
794 1 Si 101.967 61.2247 1.59984 0
795 1 Si 100.431 56.0437 1.60056 0
796 1 Si 98.0331 58.0231 1.59374 0
797 1 Si 98.6833 60.9638 1.58007 0
798 1 Si 109.984 63.9973 1.62373 0
799 1 Si 106.769 63.4782 1.62411 0
800 1 Si 53.2506 33.7918 1.62171 0
801 1 Si 50.0023 34.6695 1.61569 0
802 1 Si 128.451 63.5747 1.63852 0
803 1 Si 121.278 66.0968 1.61789 0
804 1 Si 126.247 65.7979 1.5777 0
805 1 Si 123.836 67.8071 1.64715 0
806 1 Si 58.9319 35.6278 1.62088 0
807 1 Si 55.729 35.9682 1.63663 0
808 1 Si 131.502 64.735 1.64249 0
809 1 Si 72.6699 35.1428 1.60879 0
810 1 Si 69.4898 35.3623 1.63076 0
811 1 Si 155.602 63.8607 1.62552 0
812 1 Si 149.93 65.9975 1.63359 0
813 1 Si 153.25 66.3253 1.62859 0
814 1 Si 83.8352 36.3032 1.61405 0
815 1 Si 87.0765 35.98 1.60667 0
816 1 Si 92.6383 36.9637 1.61558 0
817 1 Si 95.5857 38.0795 1.6398 0
818 1 Si 177.122 62.5787 1.63537 0
819 1 Si 174.174 63.8071 1.62926 0
820 1 Si 182.581 62.3534 1.61241 0
821 1 Si 179.914 64.0493 1.60563 0
822 1 Si 29.182 35.9403 1.57602 0
823 1 Si 24.1776 37.8744 1.63114 0
824 1 Si 27.2072 38.3543 1.64592 0
825 1 Si 190.061 62.6759 1.61929 0
826 1 Si 185.267 63.9554 1.61553 0
827 1 Si 188.24 65.0637 1.62669 0
828 1 Si 34.0846 37.7247 1.60832 0
829 1 Si 31.1038 38.403 1.61112 0
830 1 Si 193.152 63.4336 1.59261 0
831 1 Si 42.6252 36.1558 1.62893 0
832 1 Si 39.3629 36.5717 1.60908 0
833 1 Si 200.426 62.976 1.61258 0
834 1 Si 195.206 66.0428 1.6315 0
835 1 Si 198.664 65.965 1.62422 0
836 1 Si 49.7244 37.9555 1.65158 0
837 1 Si 44.0094 39.1479 1.63533 0
838 1 Si 47.1448 39.8181 1.63845 0
839 1 Si 61.1788 37.9651 1.62954 0
840 1 Si 64.1836 36.6989 1.62589 0
841 1 Si 203.75 62.5016 1.61819 0
842 1 Si 205.214 65.4515 1.61857 0
843 1 Si 2.40708 65.7432 1.62076 0
844 1 Si 4.64763 63.4222 1.62583 0
845 1 Si 75.5856 36.5458 1.61196 0
846 1 Si 116.736 66.7112 1.60243 0
847 1 Si 119.271 68.739 1.58844 0
848 1 Si 74.3063 39.6646 1.63246 0
849 1 Si 83.1396 39.4547 1.62566 0
850 1 Si 77.2179 40.8928 1.60897 0
851 1 Si 80.3471 40.8946 1.61923 0
852 1 Si 87.8873 39.214 1.63033 0
853 1 Si 90.9863 40.01 1.62571 0
854 1 Si 109.225 67.315 1.62155 0
855 1 Si 114.249 69.107 1.61261 0
856 1 Si 110.942 69.9942 1.63651 0
857 1 Si 142.79 68.7072 1.61812 0
858 1 Si 137.717 68.4202 1.63387 0
859 1 Si 140.083 70.9229 1.6085 0
860 1 Si 147.933 68.6893 1.61401 0