LAMMPS data file via write_data, version 2 Aug 2023, timestep = 198, units = metal

15864 atoms
2 atom types

8.482616898014818 197.27632724081525 xlo xhi
6.173908644463534 173.12576293372106 ylo yhi
-100 100 zlo zhi

Masses

1 28.085
2 15.999

Atoms # full

6746 1 1 0 9.944779221130142 6.6490272578891885 -1.5014058530345338 0 0 0
9485 1 2 0 9.119529020074925 7.847497874331497 -2.2814335603787663 0 0 0
9486 1 2 0 9.917194246881479 10.250552661046196 -2.1492208728721236 0 0 0
6748 1 1 0 11.475460755449687 10.59951010617549 -1.6459202342205088 0 0 0
9491 1 2 0 12.844632806763663 9.803099749561698 -2.2045279651624172 0 0 0
6745 1 1 0 8.614231339991939 9.304312881298776 -1.6498545191926124 0 0 0
13358 1 2 0 11.480680499246466 10.50212176099266 -2.3451073981338862e-07 0 0 0
13355 1 2 0 8.50119899730138 9.361273344015547 -4.5391858851532695e-07 0 0 0
6754 1 1 0 15.033721157642265 6.416239744110945 -1.6308522262376448 0 0 0
9499 1 2 0 14.386957008217466 7.778929599396611 -2.259194382896152 0 0 0
6753 1 1 0 14.334218866217835 9.300288585285518 -1.644601470772444 0 0 0
9500 1 2 0 15.810157957020285 9.909545544908442 -2.1966019064320417 0 0 0
6889 1 1 0 17.329367422080782 9.89674366871828 -1.491451487296965 0 0 0
9705 1 2 0 18.691702280278488 9.25960228301796 -2.2520529837338104 0 0 0
9704 1 2 0 17.789061548720664 11.446985798718021 -1.3199718742937214 0 0 0
6895 1 1 0 22.418405838400744 7.326743392892086 -1.6455354620130624 0 0 0
9715 1 2 0 23.899626935165518 7.8129761408308225 -2.2488050474320334 0 0 0
6894 1 1 0 20.251226245459375 9.40683177026972 -1.6471762092947544 0 0 0
9712 1 2 0 21.090008412274695 8.111209740484457 -2.2216085454656223 0 0 0
9713 1 2 0 21.23032084598776 10.62233033920878 -2.2248189719834923 0 0 0
13504 1 2 0 20.153577237755872 9.470403703332575 -5.082664984601067e-07 0 0 0
6898 1 1 0 22.403550189833744 11.627576475862705 -1.6244466072223498 0 0 0
13508 1 2 0 22.51330754318726 11.335923277436324 -7.250345998498341e-07 0 0 0
6900 1 1 0 25.27550893369425 7.165293076985734 -1.5409228143022011 0 0 0
9721 1 2 0 26.724247426630054 7.405184594354322 -2.3200159197291352 0 0 0
6903 1 1 0 28.202335197143203 7.590126536548291 -1.5601861204278937 0 0 0
9728 1 2 0 29.59671362152918 6.8562700072534986 -2.1456940036477254 0 1 0
9724 1 2 0 28.467064802590063 9.197172772292195 -1.6415505042833003 0 0 0
6901 1 1 0 29.678300243443825 10.301821420473868 -1.5551773892025358 0 0 0
9723 1 2 0 28.971010296422968 11.599338711137703 -2.3118990707744653 0 0 0
13513 1 2 0 28.015169417378033 7.047669804115173 -5.62466496254599e-07 0 0 0
9734 1 2 0 33.06543351090174 7.789203998229431 -2.231658520981359 0 0 0
6911 1 1 0 34.16215985266269 6.681024638977163 -1.6451494613806867 0 0 0
9741 1 2 0 35.679596908544866 6.950561787329397 -2.2359602839077106 0 0 0
9725 1 2 0 31.049626425484718 9.692429310204366 -2.268866577751838 0 0 0
6907 1 1 0 32.52995481576327 9.251455035312846 -1.6466653422671902 0 0 0
9733 1 2 0 33.624191239455115 10.377260702629417 -2.171499977863082 0 0 0
13521 1 2 0 34.14647405143751 6.747965033161904 -1.710193279529654e-07 0 0 0
13517 1 2 0 32.46538328057207 9.157781645513635 -3.206574807196314e-07 0 0 0
6919 1 1 0 37.21460940431628 6.792132601825795 -1.6463350966910877 0 0 0
9751 1 2 0 38.05449020733009 8.069288718435798 -2.242265529485479 0 0 0
6917 1 1 0 38.593648034205025 9.497553265470295 -1.6462249443583752 0 0 0
9750 1 2 0 37.593090617730184 10.663498220733876 -2.2453707161738485 0 0 0
9752 1 2 0 40.11548882204951 9.679274417967763 -2.2354803924800954 0 0 0
6921 1 1 0 41.63866579979494 9.888355642766243 -1.647291142822043 0 0 0
6925 1 1 0 43.24858782151629 7.243510322541805 -1.6446349246834058 0 0 0
9764 1 2 0 44.79019899018496 7.064952397600808 -2.1941329092731516 0 0 0
6930 1 1 0 46.313294033899524 7.394685897082038 -1.646901327000062 0 0 0
9757 1 2 0 42.58587577550516 8.652052171862787 -2.2212966606569244 0 0 0
6928 1 1 0 47.29850774464462 10.331264220336415 -1.627008405930016 0 0 0
9769 1 2 0 46.59467128822609 8.936965494670744 -2.226259849487171 0 0 0
9756 1 2 0 42.10840638165629 11.357405962406917 -2.238507718208601 0 0 0
13540 1 2 0 46.4162351189588 7.411010581150472 -6.216419196020991e-08 0 0 0
13538 1 2 0 47.05405188343492 10.385715464801793 -7.739263585952136e-07 0 0 0
9780 1 2 0 51.77514657462513 6.496366144176177 -2.176020937428552 0 0 0
6936 1 1 0 52.365560982876666 7.9766570538465675 -1.6505817349153025 0 0 0
9770 1 2 0 48.87625337057778 10.014156385231837 -2.0155341510172957 0 0 0
6932 1 1 0 50.4141191350948 10.473006576958172 -1.6272978230721442 0 0 0
9774 1 2 0 51.464361682957076 9.290445963720456 -2.204781684728746 0 0 0
13542 1 2 0 50.695909828752086 10.567667333246423 -3.7834436855109075e-07 0 0 0
13546 1 2 0 52.3407273977489 7.997790942168733 -6.439991419492385e-07 0 0 0
9781 1 2 0 53.937396236236836 8.103761763878792 -2.223324272627337 0 0 0
6941 1 1 0 55.48470351628723 7.881809769049186 -1.6416347370572726 0 0 0
9790 1 2 0 56.15441003416846 6.4708680076515925 -2.197253293438835 0 0 0
9786 1 2 0 56.65340583026227 8.933631880371578 -2.1673071311697947 0 0 0
6939 1 1 0 57.12370359433916 10.425551406582555 -1.6517601659291872 0 0 0
9785 1 2 0 55.866358042010695 11.329538022226513 -2.2737856924084237 0 0 0
9799 1 2 0 61.364803233774154 7.23846150419184 -2.2391457950712406 0 0 0
6947 1 1 0 62.02166531522437 8.628442371482878 -1.6461169172247265 0 0 0
9787 1 2 0 58.62421937385028 10.831212175663616 -2.238644076252242 0 0 0
6943 1 1 0 60.15537346905185 11.113000908989052 -1.6478593585994519 0 0 0
9793 1 2 0 61.13179037520309 9.900413203462255 -2.201198989726953 0 0 0
9800 1 2 0 63.56837910407361 8.73269323481476 -2.2393165290086547 0 0 0
13553 1 2 0 60.11086354626368 11.14113579362578 -1.845139578464579e-07 0 0 0
13557 1 2 0 62.02626479969964 8.6131477528741 -1.2108178908225976e-07 0 0 0
6962 1 1 0 67.74054681516886 8.239802827309903 -1.645349495026958 0 0 0
9825 1 2 0 67.79351456362275 6.703882365982493 -2.221936718058523 0 0 0
6952 1 1 0 64.91304252980233 9.48621507673073 -1.6448853650514135 0 0 0
9805 1 2 0 64.86453350962522 11.065555312852767 -2.1780399493844422 0 0 0
9808 1 2 0 66.30981357090222 8.828165481791888 -2.2324450344305466 0 0 0
9823 1 2 0 69.09156122459157 9.00720735596392 -2.2214947203391766 0 0 0
9806 1 2 0 67.49051216224983 11.623731696732635 -2.155335309937174 0 0 0
13572 1 2 0 67.74223282846168 8.293563665953293 -6.584392965911058e-07 0 0 0
9827 1 2 0 74.10729519966 8.044574968849194 -2.2318835400888997 0 0 0
6961 1 1 0 70.33908911724605 9.936129079256844 -1.6459354400142225 0 0 0
9824 1 2 0 71.79195254330025 9.410360095454584 -2.2451258880379825 0 0 0
6963 1 1 0 73.33813987902657 9.36740844504266 -1.6466664080403124 0 0 0
9826 1 2 0 74.32992865992667 10.568886479098612 -2.210418188394917 0 0 0
9815 1 2 0 70.13024680308862 11.507891939618103 -2.1703719385054803 0 0 0
6967 1 1 0 75.31998705393828 7.094293538130003 -1.6457349711601337 0 0 0
9832 1 2 0 76.82421548469064 7.4545787266325005 -2.245502653010871 0 0 0
6970 1 1 0 78.36773045206374 7.610043654005237 -1.647262705143812 0 0 0
9839 1 2 0 79.3559670854906 6.402189650719849 -2.2018674760526147 0 0 0
9835 1 2 0 79.01452480201417 9.03194831906928 -2.2132527560735045 0 0 0
6968 1 1 0 80.27703591920668 9.94490094011249 -1.6504354446573508 0 0 0
9834 1 2 0 80.25142508320036 11.486910258730672 -2.2608236729839293 0 0 0
13577 1 2 0 75.39471267643037 7.155101402137254 -1.0969668830223147e-06 0 0 0
9852 1 2 0 84.49727391660423 9.02875070857168 -2.182235510851535 0 0 0
6982 1 1 0 84.92728257480816 7.521681553404318 -1.644703567686031 0 0 0
9836 1 2 0 81.71752310641367 9.312672188786797 -2.200311390043301 0 0 0
6978 1 1 0 83.17290522223088 9.866112414980057 -1.6381816920460028 0 0 0
9851 1 2 0 83.43388350806781 11.437950787332891 -2.126506664560295 0 0 0
13592 1 2 0 84.9974102484293 7.429182584050283 -1.0070958388491603e-06 0 0 0
9858 1 2 0 83.62694503123637 6.65337832118609 -2.1789564104400254 0 0 0
9854 1 2 0 86.09835972187874 11.3096228060802 -2.3696687709386333 0 0 0
13588 1 2 0 83.12607978282537 9.749270824719693 -4.3705213207212927e-07 0 0 0
9859 1 2 0 86.444014167738 7.096487415611884 -2.2281922993469565 0 0 0
6986 1 1 0 87.8072936014495 7.863938009001631 -1.6356628132880087 0 0 0
9865 1 2 0 89.3610541206018 7.47992555433258 -2.138639258782459 0 0 0
6992 1 1 0 90.5363080154554 8.593020520838502 -1.6543615829099296 0 0 0
9863 1 2 0 87.74113673113915 9.39857276027546 -2.2173787749083522 0 0 0
6985 1 1 0 87.48572796623468 10.900289036444146 -1.6311101925951323 0 0 0
9868 1 2 0 90.4861482377602 10.129191225639094 -2.270793522467351 0 0 0
6988 1 1 0 90.22744292524654 11.619248431122692 -1.6294073795595505 0 0 0
13598 1 2 0 90.42396739420214 11.555729397499308 -2.4856211682382784e-07 0 0 0
13602 1 2 0 90.54991247804305 8.617497866723076 -1.025891067129918e-06 0 0 0
13596 1 2 0 87.78089601966762 7.689592923058078 -5.716503342472364e-07 0 0 0
13595 1 2 0 87.36986363843883 10.775670820312792 -4.50900955430298e-07 0 0 0
9874 1 2 0 91.9827972451104 8.137490463688163 -2.257733668124189 0 0 0
6997 1 1 0 93.12797345572503 7.137334914452106 -1.6391578510968319 0 0 0
9879 1 2 0 94.52157573251841 7.971187520663347 -2.1478294133535303 0 0 0
9880 1 2 0 97.08946128673854 7.74269397593114 -2.146741561361087 0 0 0
6995 1 1 0 95.91867449161896 8.824454242231038 -1.6436915677137454 0 0 0
9876 1 2 0 96.34290521915003 10.434449361734004 -2.1305832643538514 0 0 0
13607 1 2 0 93.27663988377897 6.999684829274466 -2.8068391325267623e-07 0 0 0
7001 1 1 0 98.10776730981969 6.524605392541115 -1.6419194208975472 0 0 0
9330 1 2 0 99.62089615972168 7.201104226216777 -2.128053346134879 0 0 0
6651 1 1 0 100.83484328753859 8.32264053654671 -1.6480272902633901 0 0 0
9329 1 2 0 102.32797022695439 7.7536351166196615 -2.167668237050892 0 0 0
9327 1 2 0 100.8438985866281 9.951821608302396 -2.1574717823982543 0 0 0
9328 1 2 0 98.81029937926515 11.492661539103874 -2.072338611854924 0 0 0
6650 1 1 0 100.40548422110962 11.518800803816175 -1.6317301088452996 0 0 0
13260 1 2 0 100.63915023875681 11.534183537615064 -9.941375245766265e-08 0 0 0
13261 1 2 0 100.77384977731408 8.345231641364071 -5.235056340379335e-07 0 0 0
9490 1 2 0 11.715836870182326 12.097021785591686 -2.288504006809162 0 0 0
6752 1 1 0 12.342247152985841 13.451402166459756 -1.6264162552636365 0 0 0
9494 1 2 0 9.130400239447559 15.869193554983296 -2.2370055520846375 0 0 0
9496 1 2 0 11.257327089553463 14.581254641305817 -2.0451435191308263 0 0 0
6751 1 1 0 10.692625289541153 16.050072571811352 -1.6202324838952171 0 0 0
9497 1 2 0 11.884392297712823 17.090972161565745 -2.195718286782882 0 0 0
9498 1 2 0 13.784349481791677 13.860119306300637 -2.313561936982219 0 0 0
6890 1 1 0 17.72992282884894 13.052503491775553 -1.4933301237931467 0 0 0
9706 1 2 0 19.0759047946877 13.409480154610005 -2.389309565068969 0 0 0
6813 1 1 0 15.166016685433757 14.433488379631893 -1.6504681105598773 0 0 0
9592 1 2 0 16.354759624859813 13.467941692002938 -2.274400091268379 0 0 0
9591 1 2 0 15.504012329421508 15.963162487795353 -2.206790205401275 0 0 0
6814 1 1 0 16.826778445866108 16.767392633817227 -1.6293707983358074 0 0 0
9594 1 2 0 18.25104705938551 16.041703661033637 -2.120184997693525 0 0 0
13614 1 2 0 19.411415610082706 17.147246395327336 -4.978215767556631e-07 0 0 0
13500 1 2 0 17.745113239143134 13.820495534776228 -4.5636805652121706e-07 0 0 0
9718 1 2 0 21.814940412148836 13.078195387869116 -2.1793088991252323 0 0 0
9719 1 2 0 23.973257999272747 11.750400323154903 -2.1746534503365456 0 0 0
6899 1 1 0 20.452748842604247 13.666957405798136 -1.518046452185525 0 0 0
9720 1 2 0 20.770565232820527 15.265826646858098 -1.4354118598517456 0 0 0
9729 1 2 0 24.12206834207934 14.468117782712525 -2.154041579968887 0 0 0
7004 1 1 0 19.712512463024147 16.512892541009244 -1.5032702637524846 0 0 0
7007 1 1 0 24.35750870340072 16.04265818441874 -1.6398208335193618 0 0 0
6904 1 1 0 24.89130511283928 13.059272270267355 -1.6540103023425448 0 0 0
9896 1 2 0 23.3295196894916 17.268524082341134 -2.212438957483275 0 0 0
13617 1 2 0 24.24157070671725 16.127245177289357 -4.5086561223367e-07 0 0 0
6902 1 1 0 27.930896759971645 12.671820070179438 -1.5757477758479423 0 0 0
9726 1 2 0 26.424600153442924 12.813181746831727 -2.266743515182007 0 0 0
9727 1 2 0 28.69842378910798 14.107703857648993 -1.6959690191707375 0 0 0
6909 1 1 0 29.66110143198431 15.423155503329099 -1.568152852699909 0 0 0
9895 1 2 0 25.93891299902512 16.189209546814663 -2.148082143481981 0 0 0
7008 1 1 0 27.22836410548243 17.083579504181984 -1.6482005989339052 0 0 0
9738 1 2 0 28.71777810919185 16.622791247486965 -2.2555596924604573 0 0 0
13618 1 2 0 27.333144813596107 17.08146598774101 -1.99495653883781e-07 0 0 0
13512 1 2 0 27.702788898831944 12.221341585138552 -1.948062005651819e-08 0 0 0
6908 1 1 0 33.95557174103461 11.901045449739215 -1.6410935037752368 0 0 0
9735 1 2 0 32.744913688139185 12.922040700768536 -2.152920939125272 0 0 0
9736 1 2 0 35.447820410692245 12.321165845637553 -2.235668449396871 0 0 0
9737 1 2 0 31.15698636178578 15.153745946513515 -2.263648133636432 0 0 0
6910 1 1 0 32.56848937613806 14.501073604320467 -1.6472438221223034 0 0 0
9739 1 2 0 33.937426293513205 15.232942099496718 -2.226175924123658 0 0 0
7009 1 1 0 35.25467295805639 16.04507513892985 -1.645050521634498 0 0 0
13518 1 2 0 34.01069461400927 11.9426584663472 -3.655910894743708e-07 0 0 0
6918 1 1 0 36.97771210065828 12.066421961754655 -1.644847469636463 0 0 0
9761 1 2 0 36.73738386687258 15.583715064687855 -2.2307053725550983 0 0 0
9753 1 2 0 38.00016286380975 13.260247727346231 -2.152549221194908 0 0 0
6923 1 1 0 38.094290931898904 14.832039159966186 -1.6411891513954089 0 0 0
9760 1 2 0 39.522077979333375 15.457466747082508 -2.216328345020949 0 0 0
6924 1 1 0 41.093611434688675 15.446871419346499 -1.65035673741747 0 0 0
13533 1 2 0 38.10621605690113 14.947713419082891 -5.612842311044112e-07 0 0 0
6922 1 1 0 42.70958835450599 12.777552169862568 -1.642930840958985 0 0 0
9759 1 2 0 44.26338629500068 12.799984411869158 -2.1829154803843323 0 0 0
6929 1 1 0 45.792727525978826 13.112212887827955 -1.6470661752139373 0 0 0
9768 1 2 0 46.72774563248495 11.813167844854641 -2.2045347283102226 0 0 0
9758 1 2 0 41.86430222566602 14.086003806641946 -2.217110362183447 0 0 0
9771 1 2 0 46.06677788220534 14.66664643960144 -2.2409661858547953 0 0 0
9762 1 2 0 41.893081150666816 16.79153355513206 -2.2269600818344686 0 0 0
6934 1 1 0 46.3961466238608 16.137696451687145 -1.4933234726356208 0 0 0
13532 1 2 0 42.65159141953468 12.792278657788943 -1.3487868843792155e-07 0 0 0
13544 1 2 0 45.64547549044446 16.124879212170942 -3.899010090140372e-07 0 0 0
9773 1 2 0 50.46241800173332 12.016946034817186 -2.280150750839296 0 0 0
9775 1 2 0 50.05704876381855 14.872536966150827 -2.289551327927718 0 0 0
6933 1 1 0 50.57552415046581 13.488937448280621 -1.4997557950121136 0 0 0
9776 1 2 0 52.18923137938423 13.614370666863259 -1.344278442167446 0 0 0
9777 1 2 0 48.004488546226 16.094135528378334 -1.3426488565152876 0 0 0
6935 1 1 0 49.60005040852776 16.28453734825532 -1.4996540581395756 0 0 0
9791 1 2 0 52.82542032689742 16.080477122707578 -2.164173560512255 0 0 0
13545 1 2 0 50.352563515678504 16.320810012062477 -8.984454871242814e-07 0 0 0
13543 1 2 0 49.82512002885195 13.402978000583312 -1.399119001831909e-07 0 0 0
6942 1 1 0 53.41299227285329 14.671723945524878 -1.49872554653913 0 0 0
6940 1 1 0 55.5852880936034 12.79230073295698 -1.5796967929670418 0 0 0
9788 1 2 0 54.47006708082755 13.716155660090386 -2.363548604942723 0 0 0
9789 1 2 0 57.11738021246112 13.438985756822092 -1.7142466643825816 0 0 0
6945 1 1 0 57.378080736579484 15.04504822126653 -1.575070823141621 0 0 0
9797 1 2 0 56.012062040065175 15.796827293640048 -2.155021321449819 0 0 0
13555 1 2 0 57.529671857450644 15.501301837293932 -4.3211708594408635e-07 0 0 0
9796 1 2 0 58.742920300906235 15.468174281843643 -2.351546666361858 0 0 0
9792 1 2 0 60.81776527936111 12.524029088465849 -2.24212870147019 0 0 0
6944 1 1 0 61.76375079306478 13.75012596464567 -1.6383951761260724 0 0 0
9794 1 2 0 61.297163640485074 15.239195263798582 -2.1637569193634203 0 0 0
9795 1 2 0 63.324931828850474 13.769830512770767 -2.1885952823588615 0 0 0
6946 1 1 0 60.06025993723061 16.18066680748864 -1.6471336185357222 0 0 0
13554 1 2 0 61.715163657244425 13.61255770657864 -8.815944955622834e-07 0 0 0
13556 1 2 0 60.0339215506594 16.25868186375528 -6.909933906023929e-08 0 0 0
6950 1 1 0 66.00388717978954 12.135925775908895 -1.6411678270029069 0 0 0
6956 1 1 0 68.84822990032612 12.415938220568176 -1.640214405259451 0 0 0
6951 1 1 0 64.62944731910527 14.650686841874998 -1.6430365228344006 0 0 0
9804 1 2 0 65.86245576497494 13.690784177039234 -2.18178677649546 0 0 0
9814 1 2 0 68.75685222671385 13.974729121797079 -2.1976949210059704 0 0 0
9807 1 2 0 64.9562383847777 16.15775439627516 -2.277158264371003 0 0 0
9816 1 2 0 69.27394124407536 16.67910294287177 -2.241821844649179 0 0 0
13561 1 2 0 64.53943850845536 14.815596097020686 -3.0931475984389465e-07 0 0 0
9828 1 2 0 72.8418903225814 12.664282660933706 -2.1144495810250588 0 0 0
6964 1 1 0 74.33869349587117 12.104725453100805 -1.6426159635838142 0 0 0
6957 1 1 0 69.71625470080356 15.207451095099652 -1.6471938890993567 0 0 0
9817 1 2 0 71.18057378284765 14.84181843751078 -2.326771677749214 0 0 0
6965 1 1 0 72.50333756282575 14.194657486164951 -1.6286758501113539 0 0 0
9830 1 2 0 73.84150579078901 15.051537990127887 -2.106279369532959 0 0 0
7025 1 1 0 73.98573931558411 16.61092439073739 -1.6281854903545128 0 0 0
13575 1 2 0 72.3017593973187 14.245412320634816 -4.6104335912570314e-07 0 0 0
13635 1 2 0 74.03659377448996 16.716264167400585 -2.2676050029938513e-07 0 0 0
9829 1 2 0 75.54628327658511 12.994612675633254 -2.3156018264118057 0 0 0
9837 1 2 0 78.05103263366308 12.815598742065474 -2.0154788718365215 0 0 0
6969 1 1 0 79.63810814342773 12.880743377073562 -1.6242203675529012 0 0 0
6971 1 1 0 76.80686113208078 13.808545646136183 -1.6306380991484677 0 0 0
9840 1 2 0 77.16197436344376 15.317373257028082 -2.252428050027209 0 0 0
9838 1 2 0 80.20449592483298 14.30846768491905 -2.262087679322601 0 0 0
7026 1 1 0 76.8475596950234 16.824246316547594 -1.6414397998059074 0 0 0
13581 1 2 0 76.59669449419451 13.964784135457782 -2.240712387651872e-07 0 0 0
9921 1 2 0 75.35473893935276 17.275953772722957 -2.2193308609684004 0 0 0
13636 1 2 0 76.96289148110516 16.734543549028103 -2.0231334393146775e-07 0 0 0
6979 1 1 0 84.87100661878313 12.109415091122075 -1.6468226858509207 0 0 0
9853 1 2 0 85.19496667572652 13.627761351467932 -2.187730508537544 0 0 0
6981 1 1 0 81.41688647295143 15.233612959664587 -1.6279618766803365 0 0 0
9855 1 2 0 82.75016583009577 14.388476886972086 -2.110636890983215 0 0 0
6980 1 1 0 84.24917491285751 14.837197593905145 -1.631294596858488 0 0 0
9856 1 2 0 84.8102249601823 16.24434427198236 -2.2638212488920924 0 0 0
9857 1 2 0 81.66511704835428 16.7305503333211 -2.2711852553003062 0 0 0
6990 1 1 0 86.18794444559231 16.927327842089376 -1.6413226797654143 0 0 0
13589 1 2 0 84.95149306190609 12.083348071767007 -4.824953631694868e-07 0 0 0
9864 1 2 0 88.65888645497085 11.992537006736933 -2.0340403482081992 0 0 0
9867 1 2 0 91.24185738008521 12.773596333569422 -2.232441767439279 0 0 0
9869 1 2 0 89.96187771622331 15.09356594619119 -2.220059354724623 0 0 0
6989 1 1 0 91.31252270710516 14.329973156138921 -1.6521636643510274 0 0 0
9871 1 2 0 87.49629561048226 16.113691960251252 -2.224053415272812 0 0 0
6991 1 1 0 89.03207939584412 16.323281652306488 -1.6535226196440809 0 0 0
13601 1 2 0 89.0976425394047 16.30968277553855 -2.9961151980355027e-07 0 0 0
6993 1 1 0 97.25745890741615 11.84159094771178 -1.6258050067383982 0 0 0
9870 1 2 0 92.64611818916057 15.06746610235611 -2.2908764361996896 0 0 0
9877 1 2 0 95.2485528071783 14.970716435012843 -1.99067823172972 0 0 0
6994 1 1 0 96.84976293207725 15.087688014806538 -1.6069442900256503 0 0 0
6996 1 1 0 93.92949856088136 15.865543755398004 -1.633130346852345 0 0 0
9875 1 2 0 97.21714683668232 13.49222488868172 -2.1329315878467994 0 0 0
9325 1 2 0 101.10315564346061 13.01097760802865 -2.1513329543060795 0 0 0
6649 1 1 0 102.08087818320337 14.336520917396331 -1.6300212649103356 0 0 0
9878 1 2 0 97.36700716048531 16.672158391951143 -2.158777361411436 0 0 0
9326 1 2 0 102.12817281099008 15.999967392697043 -2.1303042649067256 0 0 0
6811 1 1 0 10.515146686594196 20.838469398233265 -1.6411759780243818 0 0 0
9586 1 2 0 9.046972253209312 21.23517792138359 -2.2978661065678536 0 0 0
6809 1 1 0 12.349659970289412 18.605889507884132 -1.6418956314157716 0 0 0
9584 1 2 0 11.012356749936119 19.40052158164906 -2.218241198660345 0 0 0
9585 1 2 0 13.702567825566843 19.45230010832904 -2.1922912205787006 0 0 0
9588 1 2 0 11.637307463983339 21.948715036862133 -2.0935201718972207 0 0 0
13419 1 2 0 12.521712656974755 18.521274488779635 -4.3626325817751786e-07 0 0 0
13421 1 2 0 10.457058055012107 20.748380412987988 -8.732030934783792e-07 0 0 0
6815 1 1 0 17.426962609580695 19.673546901172745 -1.6398343029816915 0 0 0
9593 1 2 0 16.897554348930495 18.253350888311765 -2.298892793365712 0 0 0
9589 1 2 0 16.216980118393344 20.684963662827208 -2.109380760385777 0 0 0
9595 1 2 0 18.9250275143682 20.021511977619436 -2.241488170310458 0 0 0
6812 1 1 0 14.62530115543518 20.76118367242988 -1.6432539342361077 0 0 0
9590 1 2 0 14.278667636955634 22.265067603221784 -2.2623191904276405 0 0 0
9891 1 2 0 20.60423854968527 17.605312337484257 -2.349117878425334 0 0 0
7041 1 1 0 22.02243756341013 18.184393056595287 -1.6589395263111542 0 0 0
9945 1 2 0 21.755905973315837 19.80162505832265 -2.0801755547862344 0 0 0
7076 1 1 0 20.357566002848237 20.642809225601574 -1.6456327946251785 0 0 0
9998 1 2 0 20.357947123358016 22.189579051849616 -2.246339902051478 0 0 0
13651 1 2 0 22.074960124832625 18.086575646271122 -8.96793309587131e-07 0 0 0
13686 1 2 0 20.296003221513104 20.69031482417733 -4.006663700493615e-07 0 0 0
7045 1 1 0 27.082082011176702 20.037540591547042 -1.6456398445181524 0 0 0
9897 1 2 0 26.781862643131763 18.54998450358552 -2.2467514653956018 0 0 0
9951 1 2 0 28.60348358911234 20.340409859164296 -2.242156206521325 0 0 0
9952 1 2 0 25.78797010835138 20.965317332617133 -2.14621984996246 0 0 0
7077 1 1 0 25.605034683049627 22.545189360260665 -1.6413643215915918 0 0 0
9954 1 2 0 29.764258095803502 22.653069343613815 -2.1096344298985046 0 0 0
7046 1 1 0 29.947488871338013 21.07787134478383 -1.6332317303925912 0 0 0
13687 1 2 0 25.505052298267437 22.59824003531133 -3.4453731662827916e-07 0 0 0
13656 1 2 0 29.969270347048212 20.899510602743707 -4.793316403072501e-07 0 0 0
9898 1 2 0 34.989914851547354 17.553949593411904 -2.226348939824158 0 0 0
9949 1 2 0 34.06707319093467 19.967271312491143 -2.2504383151871967 0 0 0
7044 1 1 0 35.298891529094675 19.048345049074843 -1.6458265978438176 0 0 0
9953 1 2 0 31.384960571492453 20.508254966342857 -2.2291571829333963 0 0 0
7047 1 1 0 32.88716724905946 20.948743179372553 -1.6524918367833827 0 0 0
9955 1 2 0 33.211552462236135 22.44730714047139 -2.2762443669888017 0 0 0
9950 1 2 0 36.82854374812856 19.413481006925153 -2.188351195520182 0 0 0
9900 1 2 0 41.3258263952993 19.417597650584433 -2.1953503319159067 0 0 0
7048 1 1 0 37.73387221464093 20.682977985155446 -1.6382805774446692 0 0 0
9957 1 2 0 36.86836816583782 21.967040325295052 -2.1850017155658357 0 0 0
9956 1 2 0 39.234436462760534 20.847920267919108 -2.2844757403421876 0 0 0
7049 1 1 0 40.75944924714587 20.864458693817284 -1.6476833961614215 0 0 0
9958 1 2 0 41.58878584837902 22.191193361866905 -2.2092566729475163 0 0 0
9778 1 2 0 46.088297950219015 17.627512107412528 -2.2122275582855053 0 0 0
7010 1 1 0 42.37006730039701 18.27368226436533 -1.6402036711878132 0 0 0
9899 1 2 0 43.82186475075111 18.830596669912225 -2.1970403263932243 0 0 0
7011 1 1 0 45.370605941920736 19.047481197022496 -1.6468340898970173 0 0 0
9901 1 2 0 45.94795340380427 20.559089819408793 -2.166667966523396 0 0 0
7084 1 1 0 45.73230897175026 22.17202016792361 -1.6467440324963691 0 0 0
10008 1 2 0 44.23669201555045 22.62423584036265 -2.2083739102373596 0 0 0
13621 1 2 0 45.4886475597989 19.083074257556465 -1.4074749505158863e-07 0 0 0
13620 1 2 0 42.40472978930443 18.18568832460607 -9.729965410810097e-08 0 0 0
9779 1 2 0 49.7785655426391 17.799543843899023 -2.1963308778758157 0 0 0
7050 1 1 0 50.58412532282995 19.168296598213736 -1.6444208220847834 0 0 0
9907 1 2 0 52.118145914076806 18.854877277659472 -2.209060636991466 0 0 0
9959 1 2 0 50.11665211793698 20.685560540485348 -2.2005124354208534 0 0 0
7093 1 1 0 50.35615855293195 22.26522537553196 -1.6509657547734553 0 0 0
10025 1 2 0 51.794117432849625 22.827621535735737 -2.26537199545289 0 0 0
7015 1 1 0 53.091782411488275 17.649186395402605 -1.6416467505936534 0 0 0
7016 1 1 0 55.877481836823165 17.347814587351966 -1.61204975111492 0 0 0
9906 1 2 0 54.55631602135193 18.028110539955556 -2.2977995317868776 0 0 0
9908 1 2 0 57.382478815210234 17.93947855896486 -1.9825062004867393 0 0 0
7055 1 1 0 57.524774886846316 19.54645674072938 -1.6131419474391666 0 0 0
10023 1 2 0 54.26819166038475 22.002227867690642 -2.2690799249863085 0 0 0
9967 1 2 0 56.09710489605796 20.113619947020467 -2.210432179863572 0 0 0
7092 1 1 0 55.71601983547342 21.60324696985584 -1.6271214661112048 0 0 0
10024 1 2 0 57.08109165452789 22.386619088654076 -2.1163365074453666 0 0 0
13665 1 2 0 57.57082237352367 19.88069406317261 -3.470709052142152e-07 0 0 0
13625 1 2 0 52.961753632800416 17.7038587310979 -6.445334745893194e-08 0 0 0
9798 1 2 0 60.26888108195459 17.67251615955026 -2.282793430696787 0 0 0
9913 1 2 0 58.94038006883551 20.031404062124196 -2.272490991328511 0 0 0
7019 1 1 0 60.233343051607264 19.193614742732112 -1.6547339686397082 0 0 0
9912 1 2 0 61.49532959539582 20.04751559914452 -2.234347355044087 0 0 0
7020 1 1 0 63.00265408031691 19.783458372148747 -1.64231483498131 0 0 0
9819 1 2 0 63.37753075339582 18.250170924486447 -2.1207572615130195 0 0 0
9914 1 2 0 63.8707230184128 21.094667112349697 -2.1774288187118556 0 0 0
7058 1 1 0 63.27486574120847 22.555377866217228 -1.6439170998341184 0 0 0
13629 1 2 0 60.213769425448376 19.120764711355303 -7.868296677548446e-08 0 0 0
9972 1 2 0 61.6985842487947 22.732616070414615 -2.1309913360109056 0 0 0
6958 1 1 0 64.85399906366229 17.67921222219552 -1.630483259604563 0 0 0
9818 1 2 0 65.80307265491818 18.911502438951974 -2.2191506313228833 0 0 0
6959 1 1 0 66.98926439880705 19.92042217201109 -1.6431018482696615 0 0 0
9820 1 2 0 68.28775672246591 19.144816539726214 -2.2594085707750144 0 0 0
9821 1 2 0 67.13871795699563 21.472774034050786 -2.2276770345734476 0 0 0
6960 1 1 0 69.4672159140065 18.21718592884753 -1.6484346646290315 0 0 0
13669 1 2 0 67.79142791184003 22.799548592574006 -1.681724319106562e-07 0 0 0
9922 1 2 0 72.68089502549621 17.408435910758744 -2.2019034259785712 0 0 0
9822 1 2 0 70.76269970817245 19.074266901402584 -2.215385880707883 0 0 0
7061 1 1 0 72.28001241705047 18.907258863821543 -1.6388510685790334 0 0 0
9976 1 2 0 73.30440717090163 19.999478259873797 -2.2806799210303486 0 0 0
7102 1 1 0 74.54270376182629 20.88863652295057 -1.6481230520053576 0 0 0
10039 1 2 0 74.2078128050008 22.396685491321527 -2.2189237653708873 0 0 0
13712 1 2 0 74.58007071979611 20.839170938276293 -1.5785065392825593e-07 0 0 0
9981 1 2 0 75.9652399259961 20.330795510385112 -2.270029111043623 0 0 0
7064 1 1 0 77.34454787174249 19.66796115734226 -1.6459077811262646 0 0 0
9923 1 2 0 77.73488096681118 18.120902796616996 -2.167579919148281 0 0 0
9980 1 2 0 78.57677990433092 20.624474104616617 -2.1863712658027445 0 0 0
7065 1 1 0 80.12387011645043 20.43808234657097 -1.6385828191593284 0 0 0
13674 1 2 0 77.22202787574867 19.67220647677177 -8.997586596183271e-07 0 0 0
13675 1 2 0 80.11127179167454 20.38945467728079 -1.3642089739631652e-07 0 0 0
7029 1 1 0 82.05172026906313 18.215351243146028 -1.650204681040624 0 0 0
9928 1 2 0 80.77177704742505 19.067136699845264 -2.2372956270226703 0 0 0
9927 1 2 0 83.42659784248765 18.942664066764863 -2.250929724737511 0 0 0
7030 1 1 0 84.86334867469873 19.49431622904709 -1.6384281772210516 0 0 0
9929 1 2 0 85.39172991960241 20.959421356976684 -2.235820288216267 0 0 0
9982 1 2 0 81.07108948698732 21.67456879362199 -2.1567172068436546 0 0 0
9872 1 2 0 86.11055079039767 18.500720329005674 -2.116696736830274 0 0 0
9873 1 2 0 89.52140864100187 17.767949701505874 -2.3167759799717187 0 0 0
7032 1 1 0 90.51475630467279 18.801957573872254 -1.512537234270976 0 0 0
9932 1 2 0 90.6860427645283 20.313807375022265 -2.1689201627116774 0 0 0
7067 1 1 0 86.79256339124318 21.63351981425967 -1.639332873227889 0 0 0
9984 1 2 0 88.18612863922509 20.914145548810062 -2.174032860182522 0 0 0
7068 1 1 0 89.64559829021326 21.497165391325392 -1.6345872499064653 0 0 0
13677 1 2 0 86.66213050936281 21.587187620853065 -7.124269329239453e-07 0 0 0
13678 1 2 0 89.592607365489 21.707683405198132 -1.889171503234637e-07 0 0 0
13642 1 2 0 89.87415503703069 18.99377519978081 -3.5222559536231245e-07 0 0 0
9881 1 2 0 94.27403354610013 17.365530438961752 -2.2859274362622757 0 0 0
9930 1 2 0 91.9798897165726 18.07088842005198 -1.4448181008762397 0 0 0
7031 1 1 0 93.53847890636531 18.63063889572474 -1.5186171468804863 0 0 0
9931 1 2 0 93.55096159604793 20.04327419489329 -2.36886494803414 0 0 0
9886 1 2 0 96.5571704742315 19.620670289866517 -2.099672508107479 0 0 0
9939 1 2 0 92.82884572647967 22.73411546009364 -2.249405144181292 0 0 0
7036 1 1 0 93.60253153112723 21.47783195159543 -1.5259935688131414 0 0 0
9938 1 2 0 95.17938914470963 21.89097686322912 -1.4627100160691286 0 0 0
7037 1 1 0 96.68132882495904 21.22200079964618 -1.518558277413691 0 0 0
13641 1 2 0 94.20630676254628 18.820069313827883 -1.6207824199166483e-07 0 0 0
6792 1 1 0 102.57297798107008 17.587448845870828 -1.6468262567084428 0 0 0
7000 1 1 0 97.5777282500954 18.30707818626166 -1.6349360512318216 0 0 0
9626 1 2 0 98.9887907456772 19.047505710596575 -2.143555391151419 0 0 0
6836 1 1 0 100.40412763186303 19.77608699627871 -1.6438772884819444 0 0 0