ITEM: TIMESTEP
1419
ITEM: NUMBER OF ATOMS
15600
ITEM: BOX BOUNDS pp pp pp
0.0000000000000000e+00 2.0346123013523132e+02
0.0000000000000000e+00 1.7834565793613513e+02
-1.0000000000000000e+02 1.0000000000000000e+02
ITEM: ATOMS id type element x y z v_uncoordination
1 1 Si 164.65 33.9905 1.61872 0
2 1 Si 163.486 31.0966 1.64051 0
3 1 Si 167.631 34.9244 1.6266 0
4 1 Si 166.62 30.3389 1.63812 0
5 1 Si 169.229 32.3481 1.63044 0
6 1 Si 163.341 36.7972 1.63358 0
7 1 Si 160.355 30.2853 1.64043 0
8 1 Si 158.576 33.0363 1.62997 0
9 1 Si 160.216 35.9636 1.62385 0
10 1 Si 168.48 37.9117 1.61456 0
11 1 Si 165.55 39.1944 1.61491 0
12 1 Si 189.155 32.5586 1.62493 0
13 1 Si 187.261 35.4418 1.62936 0
14 1 Si 182.184 34.0593 1.61623 0
15 1 Si 183.951 36.6536 1.6274 0
16 1 Si 186.99 30.202 1.64634 0
17 1 Si 183.933 31.3061 1.63134 0
18 1 Si 192.84 36.6851 1.62806 0
19 1 Si 189.502 37.6962 1.62931 0
20 1 Si 192.348 31.3731 1.64533 0
21 1 Si 194.605 33.7732 1.62716 0
22 1 Si 193.047 41.9018 1.62014 0
23 1 Si 189.945 42.5818 1.6449 0
24 1 Si 194.784 39.2148 1.62451 0
25 1 Si 187.559 40.4784 1.63548 0
26 1 Si 147.921 35.2984 1.61547 0
27 1 Si 144.806 36.7132 1.60374 0
28 1 Si 144.782 31.4878 1.62207 0
29 1 Si 147.995 31.935 1.61668 0
30 1 Si 142.874 34.0792 1.6154 0
31 1 Si 150.759 36.9019 1.63918 0
32 1 Si 150.947 40.1671 1.60988 0
33 1 Si 153.689 35.3752 1.63057 0
34 1 Si 155.622 37.8266 1.62755 0
35 1 Si 154.032 40.4207 1.6295 0
36 1 Si 142.9 39.564 1.62675 0
37 1 Si 144.514 42.5566 1.61087 0
38 1 Si 150.233 43.2978 1.6421 0
39 1 Si 147.272 44.3712 1.61604 0
40 1 Si 127.055 52.8203 1.63138 0
41 1 Si 128.925 50.1043 1.63126 0
42 1 Si 123.82 53.2137 1.64256 0
43 1 Si 127.666 47.1885 1.64718 0
44 1 Si 124.453 47.6126 1.64084 0
45 1 Si 122.595 50.2774 1.64624 0
46 1 Si 128.345 55.7039 1.61883 0
47 1 Si 132.124 49.9688 1.63807 0
48 1 Si 133.161 53.0108 1.62082 0
49 1 Si 131.497 55.6987 1.62656 0
50 1 Si 121.903 55.9438 1.64275 0
51 1 Si 123.52 58.831 1.64235 0
52 1 Si 126.882 58.5923 1.61731 0
53 1 Si 178.451 40.1515 1.62889 0
54 1 Si 176.975 36.9598 1.62981 0
55 1 Si 181.871 39.4252 1.61838 0
56 1 Si 178.918 34.1278 1.61144 0
57 1 Si 176.956 43.6801 1.64016 0
58 1 Si 173.654 36.3893 1.63303 0
59 1 Si 171.484 39.0046 1.62159 0
60 1 Si 171.096 42.2817 1.62654 0
61 1 Si 173.682 44.2008 1.62204 0
62 1 Si 184.33 41.5404 1.63668 0
63 1 Si 183.592 44.6925 1.61479 0
64 1 Si 178.171 47.0647 1.63426 0
65 1 Si 181.341 47.0352 1.62817 0
66 1 Si 106.409 3.3418 1.6392 0
67 1 Si 103.325 4.12593 1.62794 0
68 1 Si 108.549 5.74156 1.61992 0
69 1 Si 108.105 8.93606 1.63514 0
70 1 Si 105.017 9.71155 1.61683 0
71 1 Si 102.901 7.3071 1.63546 0
72 1 Si 107.558 0.336231 1.61361 0
73 1 Si 100.852 1.95415 1.62241 0
74 1 Si 101.809 177.102 1.63124 0
75 1 Si 105.193 176.175 1.63833 0
76 1 Si 111.577 4.88009 1.60445 0
77 1 Si 110.801 1.45204 1.62942 0
78 1 Si 118.779 2.77764 1.62375 0
79 1 Si 122.165 2.10804 1.61676 0
80 1 Si 118.593 6.23322 1.60839 0
81 1 Si 124.269 4.85513 1.62016 0
82 1 Si 121.868 7.15484 1.60758 0
83 1 Si 116.407 0.0354817 1.60882 0
84 1 Si 122.953 177.146 1.62057 0
85 1 Si 120.762 174.593 1.62348 0
86 1 Si 117.526 175.232 1.61782 0
87 1 Si 112.875 8.1395 1.63078 0
88 1 Si 116.157 8.80807 1.62314 0
89 1 Si 113.078 177.388 1.61646 0
90 1 Si 127.776 5.44173 1.64466 0
91 1 Si 129.604 2.68952 1.62357 0
92 1 Si 126.016 175.961 1.64107 0
93 1 Si 128.482 178.002 1.64912 0
94 1 Si 129.869 8.25523 1.62368 0
95 1 Si 122.889 10.2324 1.62662 0
96 1 Si 129.248 11.5221 1.63752 0
97 1 Si 125.936 11.6397 1.61578 0
98 1 Si 134.739 5.56165 1.64345 0
99 1 Si 133.19 8.37389 1.64012 0
100 1 Si 132.884 2.908 1.6268 0
101 1 Si 138.02 5.54932 1.63533 0
102 1 Si 139.974 8.19699 1.63949 0
103 1 Si 135.185 10.9978 1.61378 0
104 1 Si 138.431 11.0073 1.62509 0
105 1 Si 139.481 2.69938 1.64319 0
106 1 Si 134.617 0.24803 1.63175 0
107 1 Si 137.755 0.0106402 1.63374 0
108 1 Si 144.463 5.13578 1.64099 0
109 1 Si 143.25 8.13891 1.63306 0
110 1 Si 142.671 2.47186 1.64662 0
111 1 Si 147.603 4.71164 1.63767 0
112 1 Si 149.668 7.12228 1.62349 0
113 1 Si 145.193 10.8255 1.61608 0
114 1 Si 148.533 10.2803 1.64842 0
115 1 Si 148.979 1.85466 1.62992 0
116 1 Si 144.08 177.927 1.64023 0
117 1 Si 147.264 177.579 1.64085 0
118 1 Si 152.226 5.0279 1.62868 0
119 1 Si 152.153 1.74887 1.60753 0
120 1 Si 157.797 4.38872 1.6207 0
121 1 Si 155.105 6.21797 1.62488 0
122 1 Si 159.4 7.2001 1.63283 0
123 1 Si 155.084 9.43779 1.60221 0
124 1 Si 158.127 10.1642 1.60691 0
125 1 Si 158.886 1.21144 1.64121 0
126 1 Si 153.744 177.192 1.65575 0
127 1 Si 156.985 176.802 1.62688 0
128 1 Si 164.767 5.00944 1.61481 0
129 1 Si 162.49 7.1857 1.63104 0
130 1 Si 164.868 1.90471 1.62779 0
131 1 Si 162.07 0.361161 1.6318 0
132 1 Si 167.674 6.21297 1.62016 0
133 1 Si 163.804 10.0031 1.63849 0
134 1 Si 166.814 9.16755 1.62994 0
135 1 Si 167.732 0.469678 1.61093 0
136 1 Si 166.038 174.224 1.61704 0
137 1 Si 168.672 175.788 1.61472 0
138 1 Si 163.219 175.715 1.6271 0
139 1 Si 170.377 4.63437 1.62591 0
140 1 Si 170.656 1.51098 1.63873 0
141 1 Si 175.75 3.80324 1.63519 0
142 1 Si 173.224 5.8075 1.63282 0
143 1 Si 178.436 5.47997 1.62667 0
144 1 Si 178.442 8.66743 1.61909 0
145 1 Si 173.029 8.93166 1.62884 0
146 1 Si 175.813 10.2271 1.64202 0
147 1 Si 175.935 0.552386 1.63222 0
148 1 Si 172.998 177.695 1.64103 0
149 1 Si 181.246 4.01644 1.64209 0
150 1 Si 181.545 0.81072 1.63996 0
151 1 Si 178.792 177.283 1.63166 0
152 1 Si 183.677 6.09635 1.63283 0
153 1 Si 183.447 9.29163 1.64211 0
154 1 Si 180.725 10.8577 1.63216 0
155 1 Si 186.565 4.88905 1.64029 0
156 1 Si 187.345 1.84681 1.60668 0
157 1 Si 184.712 178.238 1.64411 0
158 1 Si 189.003 6.82071 1.63554 0
159 1 Si 188.723 9.92558 1.62415 0
160 1 Si 185.9 11.2717 1.65233 0
161 1 Si 191.853 5.52866 1.59029 0
162 1 Si 190.585 2.46178 1.63033 0
163 1 Si 193.457 8.46321 1.63668 0
164 1 Si 191.558 11.3327 1.61166 0
165 1 Si 198.719 5.14874 1.6069 0
166 1 Si 196.786 8.33845 1.62529 0
167 1 Si 198.32 1.86788 1.63108 0
168 1 Si 192.331 178.173 1.62568 0
169 1 Si 195.551 0.202831 1.5976 0
170 1 Si 201.956 3.97828 1.60716 0
171 1 Si 0.0760051 6.62999 1.64122 0
172 1 Si 202.997 9.70378 1.62343 0
173 1 Si 197.809 11.7399 1.61552 0
174 1 Si 201.091 12.1977 1.6218 0
175 1 Si 0.259709 1.01081 1.61779 0
176 1 Si 200.772 177.999 1.60739 0
177 1 Si 3.17724 6.7178 1.5753 0
178 1 Si 2.64071 9.80157 1.61645 0
179 1 Si 6.29388 6.63486 1.63718 0
180 1 Si 7.75087 3.8828 1.6137 0
181 1 Si 6.19829 1.01696 1.59745 0
182 1 Si 3.37871 177.652 1.61967 0
183 1 Si 110.735 10.8394 1.6231 0
184 1 Si 120.393 12.3158 1.6134 0
185 1 Si 117.108 12.1953 1.62731 0
186 1 Si 131.458 14.3017 1.63281 0
187 1 Si 134.721 14.2166 1.60456 0
188 1 Si 140.004 13.9014 1.63129 0
189 1 Si 143.481 13.777 1.63078 0
190 1 Si 150.594 12.8744 1.62328 0
191 1 Si 153.646 12.2533 1.6326 0
192 1 Si 163.285 13.1055 1.62078 0
193 1 Si 158.279 13.4119 1.63434 0
194 1 Si 160.871 15.2503 1.61925 0
195 1 Si 168.267 11.8595 1.61765 0
196 1 Si 171.279 11.5077 1.64637 0
197 1 Si 103.165 12.3737 1.62475 0
198 1 Si 110.372 14.3255 1.64451 0
199 1 Si 107.461 16.035 1.61528 0
200 1 Si 104.222 15.3936 1.62714 0
201 1 Si 125.45 14.7617 1.63507 0
202 1 Si 122.238 14.9269 1.62646 0
203 1 Si 127.697 17.0735 1.61532 0
204 1 Si 130.91 17.5778 1.59658 0
205 1 Si 137.465 16.1626 1.62728 0
206 1 Si 166.233 14.2006 1.62665 0
207 1 Si 175.625 13.2739 1.63315 0
208 1 Si 172.728 14.2233 1.62084 0
209 1 Si 180.442 14.0677 1.64316 0
210 1 Si 177.678 15.5243 1.62433 0
211 1 Si 185.653 14.4073 1.62107 0
212 1 Si 182.922 15.9712 1.6201 0
213 1 Si 191.07 14.7019 1.64917 0
214 1 Si 188.153 16.3513 1.60598 0
215 1 Si 196.533 14.9891 1.62376 0
216 1 Si 193.655 16.6439 1.62113 0
217 1 Si 202.782 15.0206 1.61195 0
218 1 Si 197.997 17.9549 1.61952 0
219 1 Si 201.128 17.776 1.60595 0
220 1 Si 99.9445 8.48416 1.63631 0
221 1 Si 99.975 11.7059 1.61856 0
222 1 Si 115.942 15.5088 1.63663 0
223 1 Si 112.814 16.6811 1.63411 0
224 1 Si 121.157 17.8534 1.63355 0
225 1 Si 117.942 18.2254 1.63988 0
226 1 Si 145.249 16.614 1.6262 0
227 1 Si 151.166 16.1685 1.62435 0
228 1 Si 148.403 17.7242 1.62464 0
229 1 Si 155.455 14.8843 1.6153 0
230 1 Si 166.858 17.2425 1.61904 0
231 1 Si 172.586 17.3095 1.62905 0
232 1 Si 169.733 18.6665 1.61642 0
233 1 Si 2.35671 16.2211 1.63187 0
234 1 Si 5.24832 14.7572 1.62921 0
235 1 Si 5.2012 11.5772 1.63734 0
236 1 Si 107.194 19.2921 1.61703 0
237 1 Si 104.186 20.3919 1.61629 0
238 1 Si 102.111 17.9574 1.6052 0
239 1 Si 126.771 20.0857 1.61289 0
240 1 Si 123.558 20.0279 1.63545 0
241 1 Si 132.029 20.7909 1.62284 0
242 1 Si 129.139 22.3991 1.62335 0
243 1 Si 137.596 19.5796 1.62368 0
244 1 Si 143.632 19.4042 1.63357 0
245 1 Si 140.646 20.6604 1.65159 0
246 1 Si 154.145 17.8131 1.64425 0
247 1 Si 161.276 18.5879 1.63224 0
248 1 Si 164.449 19.3246 1.61839 0
249 1 Si 175.72 18.0134 1.63031 0
250 1 Si 183.057 19.1509 1.62213 0
251 1 Si 177.027 20.8529 1.61941 0
252 1 Si 180.315 21.0517 1.62435 0
253 1 Si 186.384 19.1771 1.63113 0
254 1 Si 193.441 20.0486 1.62605 0
255 1 Si 187.728 22.0769 1.61968 0
256 1 Si 191.011 22.4373 1.6229 0
257 1 Si 196.54 20.94 1.61674 0
258 1 Si 202.775 20.5164 1.61074 0
259 1 Si 2.36984 19.483 1.63233 0
260 1 Si 112.251 20.1168 1.64549 0
261 1 Si 109.367 21.6791 1.63037 0
262 1 Si 117.242 21.4504 1.64224 0
263 1 Si 114.265 22.7696 1.63682 0
264 1 Si 122.772 23.0169 1.62737 0
265 1 Si 119.643 23.584 1.63443 0
266 1 Si 135.182 22.0653 1.629 0
267 1 Si 145.977 21.5467 1.60698 0
268 1 Si 149.063 20.902 1.60367 0
269 1 Si 155.89 20.8694 1.63071 0
270 1 Si 159.342 21.3609 1.63829 0
271 1 Si 166.086 22.1148 1.61786 0
272 1 Si 169.345 21.8603 1.61599 0
273 1 Si 108.558 24.9775 1.62685 0
274 1 Si 105.471 25.9254 1.62344 0
275 1 Si 103.405 23.4779 1.61599 0
276 1 Si 128.213 25.5991 1.63447 0
277 1 Si 124.911 25.3786 1.6278 0
278 1 Si 135.76 25.4221 1.60906 0
279 1 Si 129.709 28.7642 1.60331 0
280 1 Si 132.813 30.6331 1.62038 0
281 1 Si 135.391 28.7782 1.63095 0
282 1 Si 140.894 23.7742 1.57002 0
283 1 Si 146.282 24.6898 1.6142 0
284 1 Si 143.414 25.6968 1.6197 0
285 1 Si 150.949 23.5686 1.63724 0
286 1 Si 154.217 23.8066 1.62507 0
287 1 Si 161.053 24.4947 1.63569 0
288 1 Si 164.599 24.9821 1.63064 0
289 1 Si 174.972 23.4357 1.62702 0
290 1 Si 171.728 24.1816 1.64825 0
291 1 Si 180.114 24.2603 1.62688 0
292 1 Si 177.191 25.7206 1.63551 0
293 1 Si 185.807 24.7802 1.6126 0
294 1 Si 182.738 26.0298 1.64759 0
295 1 Si 190.989 25.7707 1.62913 0
296 1 Si 188 27.0957 1.63046 0
297 1 Si 197.864 23.9751 1.62783 0
298 1 Si 193.293 28.1017 1.64227 0
299 1 Si 196.462 27.0778 1.63026 0
300 1 Si 201.1 23.2918 1.61903 0
301 1 Si 5.12209 21.212 1.62569 0
302 1 Si 202.871 25.843 1.63405 0
303 1 Si 2.5184 25.9706 1.62059 0
304 1 Si 5.20072 24.429 1.64191 0
305 1 Si 8.16669 16.3102 1.63494 0
306 1 Si 8.04958 19.8202 1.61544 0
307 1 Si 113.631 26.1778 1.63492 0
308 1 Si 110.426 27.6992 1.63068 0
309 1 Si 119.52 26.7285 1.6353 0
310 1 Si 116.489 27.9909 1.62395 0
311 1 Si 122.659 27.6212 1.64333 0
312 1 Si 140.796 26.8641 1.5968 0
313 1 Si 137.957 27.6549 1.56685 0
314 1 Si 149.086 26.2425 1.6159 0
315 1 Si 155.65 26.8678 1.64235 0
316 1 Si 159.028 27.2143 1.63246 0
317 1 Si 167.279 27.2615 1.61448 0
318 1 Si 170.731 27.3628 1.61858 0
319 1 Si 201.464 28.6834 1.6265 0
320 1 Si 2.98185 29.0454 1.62741 0
321 1 Si 0.375734 30.699 1.64142 0
322 1 Si 108.52 30.969 1.6322 0
323 1 Si 116.943 31.1931 1.63588 0
324 1 Si 113.889 33.0978 1.60022 0
325 1 Si 110.323 33.8063 1.62631 0
326 1 Si 123.834 30.5543 1.63103 0
327 1 Si 127.281 31.0582 1.62389 0
328 1 Si 143.146 28.8383 1.59626 0
329 1 Si 150.24 29.3702 1.64189 0
330 1 Si 153.666 29.615 1.62552 0
331 1 Si 191.646 47.7332 1.62738 0
332 1 Si 189.268 45.6472 1.62887 0
333 1 Si 194.76 47.1844 1.63231 0
334 1 Si 195.305 44.1116 1.63076 0
335 1 Si 190.837 50.6973 1.62574 0
336 1 Si 186.244 46.3979 1.62167 0
337 1 Si 185.513 49.3984 1.63082 0
338 1 Si 187.809 51.4118 1.62996 0
339 1 Si 197.119 49.3694 1.63192 0
340 1 Si 196.089 52.4859 1.63497 0
341 1 Si 192.878 53.0645 1.62974 0
342 1 Si 176.274 28.8627 1.63308 0
343 1 Si 173.121 29.8765 1.6347 0
344 1 Si 181.666 29.1369 1.63202 0
345 1 Si 178.821 30.8195 1.63668 0
346 1 Si 198.474 29.6775 1.62287 0
347 1 Si 5.89868 30.0839 1.62042 0
348 1 Si 7.11143 27.0774 1.63215 0
349 1 Si 103.776 28.6721 1.6215 0
350 1 Si 100.398 24.6245 1.62249 0
351 1 Si 100.593 27.9044 1.63183 0
352 1 Si 105.001 31.6842 1.6308 0
353 1 Si 120.517 31.6733 1.63022 0
354 1 Si 128.859 33.953 1.62175 0
355 1 Si 134.324 34.0515 1.62127 0
356 1 Si 131.653 35.7862 1.63151 0
357 1 Si 138.053 30.7781 1.59291 0
358 1 Si 155.27 32.558 1.65184 0
359 1 Si 172.39 33.1488 1.63163 0
360 1 Si 197.895 32.9383 1.65795 0
361 1 Si 0.260613 33.821 1.62123 0
362 1 Si 200.628 34.9365 1.62678 0
363 1 Si 121.19 34.7148 1.63316 0
364 1 Si 115.418 35.8971 1.62455 0
365 1 Si 118.519 36.3629 1.61884 0
366 1 Si 123.861 36.3926 1.61636 0
367 1 Si 126.953 36.4044 1.63089 0
368 1 Si 139.601 33.6478 1.64269 0
369 1 Si 134.305 47.5287 1.60933 0
370 1 Si 132.012 42.4286 1.63613 0
371 1 Si 134.734 44.1336 1.62187 0
372 1 Si 129.346 44.3801 1.61187 0
373 1 Si 136.69 49.7702 1.61897 0
374 1 Si 136.302 53.0099 1.60883 0
375 1 Si 3.23815 35.1868 1.63825 0
376 1 Si 6.01225 33.3214 1.64021 0
377 1 Si 7.63342 9.5379 1.61399 0
378 1 Si 10.994 4.2977 1.60433 0
379 1 Si 11.4899 1.02558 1.62742 0
380 1 Si 8.80605 177.498 1.60663 0
381 1 Si 108.574 37.0096 1.62583 0
382 1 Si 113.905 38.5947 1.6338 0
383 1 Si 110.857 39.2259 1.62581 0
384 1 Si 12.4659 7.41603 1.63334 0
385 1 Si 10.6909 10.4465 1.63401 0
386 1 Si 17.749 4.49046 1.6325 0
387 1 Si 15.8104 7.34875 1.62848 0
388 1 Si 17.0424 1.15186 1.62941 0
389 1 Si 14.2423 177.7 1.62207 0
390 1 Si 119.862 39.1594 1.62779 0
391 1 Si 122.917 39.3436 1.62856 0
392 1 Si 21.0399 5.07609 1.61091 0
393 1 Si 22.5528 7.98332 1.62046 0
394 1 Si 17.3132 10.3528 1.62128 0
395 1 Si 20.603 10.5573 1.62224 0
396 1 Si 23.5021 2.86207 1.62706 0
397 1 Si 22.6355 177.911 1.62676 0
398 1 Si 19.3303 177.163 1.60975 0
399 1 Si 26.4744 4.502 1.62419 0
400 1 Si 25.8653 7.78179 1.61835 0
401 1 Si 29.6424 3.23164 1.6419 0
402 1 Si 30.2721 178.185 1.61856 0
403 1 Si 24.6371 175.136 1.62812 0
404 1 Si 28.1285 175.336 1.62993 0
405 1 Si 137.441 36.1058 1.61481 0
406 1 Si 32.4433 5.24429 1.60736 0
407 1 Si 33.7288 8.32882 1.62713 0
408 1 Si 28.1211 10.2567 1.61926 0
409 1 Si 31.4201 10.4782 1.62669 0
410 1 Si 35.5258 4.25087 1.62933 0
411 1 Si 36.4437 1.2205 1.63019 0
412 1 Si 33.6701 177.708 1.61838 0
413 1 Si 37.9722 6.35329 1.62593 0
414 1 Si 36.9548 9.34501 1.62194 0
415 1 Si 42.2398 2.87985 1.61711 0
416 1 Si 41.1119 5.85037 1.62675 0
417 1 Si 39.7803 0.631243 1.62994 0
418 1 Si 45.5326 3.5438 1.62745 0
419 1 Si 46.4824 6.75103 1.62459 0
420 1 Si 43.4996 8.0188 1.63208 0
421 1 Si 47.785 1.19045 1.63002 0
422 1 Si 46.5076 176.442 1.61148 0
423 1 Si 43.7254 174.702 1.65279 0
424 1 Si 40.7147 175.869 1.63084 0
425 1 Si 51.1288 1.82577 1.63194 0
426 1 Si 53.1287 4.56492 1.65265 0
427 1 Si 52.5626 7.89056 1.62441 0
428 1 Si 49.2148 8.77256 1.63323 0
429 1 Si 52.8482 177.357 1.61969 0
430 1 Si 48.5124 173.918 1.62214 0
431 1 Si 51.5842 174.432 1.62666 0
432 1 Si 128.657 39.0464 1.62256 0
433 1 Si 131.769 39.1084 1.5954 0
434 1 Si 56.326 3.88096 1.63586 0
435 1 Si 57.6799 0.982461 1.63286 0
436 1 Si 56.0492 176.721 1.63061 0
437 1 Si 59.0111 5.61324 1.6322 0
438 1 Si 58.8267 8.88631 1.61472 0
439 1 Si 55.394 10.0846 1.62597 0
440 1 Si 61.5332 3.49947 1.5814 0
441 1 Si 60.7868 0.426935 1.60716 0
442 1 Si 158.664 38.687 1.64577 0
443 1 Si 69.093 3.40836 1.56753 0
444 1 Si 67.9069 6.84137 1.61998 0
445 1 Si 65.6849 4.34752 1.60127 0
446 1 Si 64.7197 7.38207 1.60679 0
447 1 Si 72.012 1.89714 1.63889 0
448 1 Si 74.6004 4.12039 1.63143 0
449 1 Si 73.3115 7.28694 1.61451 0
450 1 Si 70.3598 8.703 1.61405 0
451 1 Si 72.0073 176.748 1.61895 0
452 1 Si 64.3438 1.63667 1.56587 0
453 1 Si 68.9729 174.994 1.61716 0
454 1 Si 66.0897 177.102 1.61103 0
455 1 Si 78.1153 3.43732 1.63919 0
456 1 Si 79.8555 6.33492 1.62369 0
457 1 Si 75.2123 9.83438 1.65125 0
458 1 Si 78.2399 9.12372 1.62791 0
459 1 Si 79.9627 0.281879 1.64061 0
460 1 Si 74.8749 174.779 1.63347 0
461 1 Si 78.211 175.609 1.62306 0
462 1 Si 85.838 5.7981 1.62361 0
463 1 Si 86.0686 2.36768 1.6332 0
464 1 Si 82.9621 7.46703 1.65172 0
465 1 Si 83.5669 178.274 1.63844 0
466 1 Si 91.9409 3.13557 1.63409 0
467 1 Si 94.8266 1.56898 1.61292 0
468 1 Si 91.6428 6.366 1.63233 0
469 1 Si 97.7375 3.19986 1.63931 0
470 1 Si 97.3856 6.50902 1.62999 0
471 1 Si 94.4875 8.03193 1.6458 0
472 1 Si 89.2618 1.27319 1.62042 0
473 1 Si 93.7096 176.828 1.62167 0
474 1 Si 90.4076 176.564 1.61573 0
475 1 Si 88.6137 7.75764 1.62495 0
476 1 Si 99.1803 175.019 1.62928 0
477 1 Si 95.8551 174.438 1.62866 0
478 1 Si 200.818 38.2111 1.63264 0
479 1 Si 197.989 39.7854 1.61944 0
480 1 Si 105.686 38.9477 1.6341 0
481 1 Si 102.806 37.5065 1.64622 0
482 1 Si 102.443 34.1788 1.63877 0
483 1 Si 115.557 41.2364 1.63214 0
484 1 Si 118.538 41.9117 1.64042 0
485 1 Si 3.24367 38.47 1.62769 0
486 1 Si 0.246665 39.9743 1.63717 0
487 1 Si 42.7096 11.1242 1.63507 0
488 1 Si 39.4157 11.6628 1.6387 0
489 1 Si 124.4 42.0577 1.64033 0
490 1 Si 127.472 41.8931 1.63686 0
491 1 Si 139.271 39.3485 1.63288 0
492 1 Si 48.421 12.0707 1.63299 0
493 1 Si 45.2056 13.3119 1.62684 0
494 1 Si 62.2149 9.63217 1.63407 0
495 1 Si 69.3579 11.7706 1.64806 0
496 1 Si 63.2657 12.744 1.6296 0
497 1 Si 66.5099 13.1923 1.62912 0
498 1 Si 74.5369 12.9573 1.62802 0
499 1 Si 71.6214 13.9946 1.62638 0
500 1 Si 82.8177 10.7464 1.60052 0
501 1 Si 79.8664 11.7804 1.62671 0
502 1 Si 88.7172 11.0651 1.62212 0
503 1 Si 83.67 13.899 1.63329 0
504 1 Si 86.8005 13.6931 1.6191 0
505 1 Si 94.4865 11.304 1.63244 0
506 1 Si 91.5559 12.6092 1.63447 0
507 1 Si 6.21443 40.0932 1.62325 0
508 1 Si 8.95711 34.6752 1.61348 0
509 1 Si 9.00323 38.0506 1.63225 0
510 1 Si 111.121 42.3406 1.63773 0
511 1 Si 104.708 42.1758 1.62732 0
512 1 Si 109.247 44.7244 1.61705 0
513 1 Si 106.152 44.9848 1.62286 0
514 1 Si 10.6976 13.9544 1.63628 0
515 1 Si 113.902 43.7869 1.62707 0
516 1 Si 16.3654 13.5108 1.63431 0
517 1 Si 13.6297 15.3605 1.64489 0
518 1 Si 21.6706 13.6185 1.61617 0
519 1 Si 18.9886 15.394 1.61639 0
520 1 Si 137.717 42.5173 1.61997 0
521 1 Si 119.902 44.7068 1.64466 0
522 1 Si 122.989 44.8411 1.64183 0
523 1 Si 27.3923 13.4396 1.62889 0
524 1 Si 24.5616 15.1076 1.64613 0
525 1 Si 32.9321 13.3086 1.60381 0
526 1 Si 30.211 14.9401 1.62288 0
527 1 Si 38.7152 14.8432 1.61754 0
528 1 Si 35.5232 15.2103 1.65875 0
529 1 Si 165.244 42.4598 1.62083 0
530 1 Si 159.605 41.7437 1.62308 0
531 1 Si 162.21 43.8158 1.64286 0
532 1 Si 54.3637 13.4191 1.61481 0
533 1 Si 51.0313 14.1189 1.61957 0
534 1 Si 168.18 43.9806 1.62571 0
535 1 Si 61.592 15.7029 1.61753 0
536 1 Si 55.7135 16.5341 1.61539 0
537 1 Si 58.8554 17.805 1.63398 0
538 1 Si 198.249 42.9748 1.62635 0
539 1 Si 79.2222 14.8706 1.63218 0
540 1 Si 76.2232 15.7108 1.62145 0
541 1 Si 0.205821 43.3254 1.648 0
542 1 Si 200.786 44.928 1.63639 0
543 1 Si 2.92922 45.2171 1.63087 0
544 1 Si 6.00612 43.5626 1.63859 0
545 1 Si 97.13 13.2958 1.635 0
546 1 Si 101.705 43.2531 1.60662 0
547 1 Si 100.857 40.1355 1.60333 0
548 1 Si 115.234 46.5863 1.64814 0
549 1 Si 118.244 47.3375 1.64134 0
550 1 Si 139.604 45.2503 1.63213 0
551 1 Si 142.734 45.2096 1.60675 0
552 1 Si 44.2212 16.5782 1.61676 0
553 1 Si 40.867 17.4372 1.62214 0
554 1 Si 50.116 17.3003 1.62621 0
555 1 Si 46.9315 18.5865 1.62897 0
556 1 Si 156.489 42.309 1.627 0
557 1 Si 66.8358 16.328 1.62273 0
558 1 Si 64.0762 17.7159 1.62249 0
559 1 Si 71.8803 17.2056 1.62083 0
560 1 Si 69.0835 18.5851 1.62783 0
561 1 Si 155.741 45.231 1.61928 0
562 1 Si 152.586 45.5089 1.61096 0
563 1 Si 81.8009 16.6811 1.62396 0
564 1 Si 91.2804 15.7777 1.62761 0
565 1 Si 88.2103 16.5448 1.61015 0
566 1 Si 96.7443 16.5914 1.62542 0
567 1 Si 93.7406 17.7928 1.63114 0
568 1 Si 110.568 47.5318 1.6301 0
569 1 Si 113.318 48.9707 1.63137 0
570 1 Si 105.467 48.094 1.62876 0
571 1 Si 108.25 49.513 1.63143 0
572 1 Si 13.8352 18.6305 1.59325 0
573 1 Si 9.85839 22.832 1.62741 0
574 1 Si 12.7053 21.5957 1.62066 0
575 1 Si 18.9514 18.6475 1.63393 0
576 1 Si 16.4055 20.5343 1.61064 0
577 1 Si 24.3209 18.3611 1.63023 0
578 1 Si 21.6834 20.2107 1.61154 0
579 1 Si 139.572 48.5457 1.62385 0
580 1 Si 31.2969 17.8796 1.62941 0
581 1 Si 26.5407 20.6116 1.6251 0
582 1 Si 29.6638 20.5199 1.63247 0
583 1 Si 144.207 48.0636 1.62597 0
584 1 Si 147.334 47.6494 1.61134 0
585 1 Si 34.4718 18.1902 1.62406 0
586 1 Si 161.487 47.1156 1.64626 0
587 1 Si 158.239 47.1742 1.62818 0
588 1 Si 53.1102 18.6592 1.62395 0
589 1 Si 168.602 47.204 1.60918 0
590 1 Si 162.886 50.2729 1.59717 0
591 1 Si 167.882 50.4137 1.63696 0
592 1 Si 165.463 52.5065 1.61371 0
593 1 Si 171.784 46.7861 1.61947 0
594 1 Si 65.0004 20.7995 1.61948 0
595 1 Si 59.223 21.4091 1.60717 0
596 1 Si 62.3403 22.5023 1.62157 0
597 1 Si 172.462 49.7494 1.59909 0
598 1 Si 174.661 51.8826 1.6246 0
599 1 Si 177.558 50.6491 1.62329 0
600 1 Si 74.7917 18.6406 1.63577 0
601 1 Si 200.188 48.1945 1.63902 0
602 1 Si 75.8021 21.9365 1.62645 0
603 1 Si 81.6226 20.0737 1.64141 0
604 1 Si 79.199 22.6054 1.63724 0
605 1 Si 2.28875 48.6175 1.63711 0
606 1 Si 202.708 50.302 1.6451 0
607 1 Si 98.9652 19.0086 1.63482 0
608 1 Si 119.396 50.2715 1.63609 0
609 1 Si 114.323 51.9854 1.64141 0
610 1 Si 117.414 52.8311 1.6292 0
611 1 Si 39.364 20.4971 1.62931 0
612 1 Si 36.1092 20.945 1.63622 0
613 1 Si 46.3401 21.7757 1.5973 0
614 1 Si 40.3533 23.5492 1.59548 0
615 1 Si 45.1184 24.6587 1.57953 0
616 1 Si 42.4069 25.9048 1.59314 0
617 1 Si 68.1998 21.6694 1.62997 0
618 1 Si 142.223 50.5427 1.62287 0
619 1 Si 70.2395 24.3935 1.632 0
620 1 Si 73.6125 24.7228 1.63479 0
621 1 Si 153.024 48.6206 1.63491 0
622 1 Si 156.163 49.5574 1.64201 0
623 1 Si 87.3861 19.5688 1.64169 0
624 1 Si 84.6341 21.2002 1.65476 0
625 1 Si 93.0229 20.9092 1.62275 0
626 1 Si 89.9341 21.436 1.63036 0
627 1 Si 182.483 50.0506 1.62496 0
628 1 Si 98.0778 22.3248 1.63241 0
629 1 Si 94.9788 23.4976 1.62489 0
630 1 Si 10.1677 26.3815 1.61698 0
631 1 Si 5.15753 50.2421 1.63641 0
632 1 Si 8.08794 48.6932 1.61 0
633 1 Si 8.79412 45.5154 1.61703 0
634 1 Si 103.065 50.1444 1.62419 0
635 1 Si 99.7918 45.8716 1.65238 0
636 1 Si 100.021 49.1163 1.63414 0
637 1 Si 109.016 52.4864 1.62468 0
638 1 Si 106.611 54.4219 1.63959 0
639 1 Si 103.698 53.2972 1.63357 0
640 1 Si 15.1945 23.56 1.59771 0
641 1 Si 111.823 53.8623 1.62028 0
642 1 Si 22.1947 23.348 1.63761 0
643 1 Si 14.865 26.8887 1.6202 0
644 1 Si 20.4443 25.9625 1.6055 0
645 1 Si 17.8593 27.7528 1.63747 0
646 1 Si 25.3233 23.5371 1.61466 0
647 1 Si 31.2193 23.2761 1.63068 0
648 1 Si 34.3276 23.6892 1.62956 0
649 1 Si 149.947 49.6095 1.62816 0
650 1 Si 53.0815 21.8563 1.60894 0
651 1 Si 48.0158 24.4824 1.61343 0
652 1 Si 51.0089 24.1794 1.60948 0
653 1 Si 157.749 52.3274 1.62413 0
654 1 Si 160.938 52.8648 1.60859 0
655 1 Si 57.5088 24.4828 1.6208 0
656 1 Si 54.398 24.7497 1.63698 0
657 1 Si 170.495 52.1584 1.58823 0
658 1 Si 63.2306 25.5507 1.63167 0
659 1 Si 60.9169 27.6204 1.5976 0
660 1 Si 57.8056 27.8555 1.60355 0
661 1 Si 172.671 54.4243 1.65569 0
662 1 Si 85.5413 24.2092 1.60792 0
663 1 Si 79.9587 26.02 1.6146 0
664 1 Si 85.3278 27.3664 1.63606 0
665 1 Si 82.3626 28.372 1.62537 0
666 1 Si 88.6581 24.23 1.63973 0
667 1 Si 201.722 53.6228 1.63206 0
668 1 Si 198.492 54.7029 1.62046 0
669 1 Si 5.47415 53.4678 1.63373 0
670 1 Si 0.458001 56.1201 1.61562 0
671 1 Si 3.68348 56.1097 1.62854 0
672 1 Si 26.6695 26.3522 1.6286 0
673 1 Si 29.7704 26.0731 1.62833 0
674 1 Si 118.52 55.9053 1.65606 0
675 1 Si 111 56.9088 1.62745 0
676 1 Si 116.379 58.5784 1.6204 0
677 1 Si 112.972 59.3599 1.62282 0
678 1 Si 34.1397 26.9824 1.628 0
679 1 Si 39.1504 26.5013 1.59681 0
680 1 Si 36.771 28.6525 1.6143 0
681 1 Si 46.692 27.3794 1.58956 0
682 1 Si 150.217 52.7214 1.61896 0
683 1 Si 143.099 53.7455 1.613 0
684 1 Si 148.626 55.3912 1.62708 0
685 1 Si 145.578 55.9497 1.62355 0
686 1 Si 65.7741 27.4386 1.6335 0
687 1 Si 68.9111 27.3842 1.6164 0
688 1 Si 152.738 54.5912 1.6053 0
689 1 Si 155.86 54.8565 1.63716 0
690 1 Si 74.6402 28.0635 1.6277 0
691 1 Si 77.8228 28.5034 1.63539 0
692 1 Si 181.812 53.1615 1.63696 0
693 1 Si 178.731 53.9401 1.6095 0
694 1 Si 90.3416 26.8153 1.60918 0
695 1 Si 93.5838 26.5426 1.64544 0
696 1 Si 187.269 54.4315 1.62454 0
697 1 Si 184.225 55.3168 1.64361 0
698 1 Si 190.407 55.1548 1.62964 0
699 1 Si 197.503 57.8568 1.63732 0
700 1 Si 190.703 58.243 1.62938 0
701 1 Si 194.143 58.6914 1.64068 0
702 1 Si 12.3046 29.1352 1.61463 0
703 1 Si 11.0954 49.882 1.60869 0
704 1 Si 11.2155 52.9502 1.64829 0
705 1 Si 8.46097 54.4273 1.63111 0
706 1 Si 21.6557 28.8499 1.60258 0
707 1 Si 19.099 30.6679 1.61187 0
708 1 Si 107.819 57.2963 1.6238 0
709 1 Si 24.7691 28.9113 1.62796 0
710 1 Si 137.643 55.9555 1.6401 0
711 1 Si 140.869 56.0276 1.62311 0
712 1 Si 31.4173 28.7535 1.59129 0
713 1 Si 151.128 57.3197 1.60259 0
714 1 Si 41.318 28.7865 1.59109 0
715 1 Si 162.333 55.8055 1.62696 0
716 1 Si 157.347 57.6653 1.63455 0
717 1 Si 160.459 58.3629 1.62033 0
718 1 Si 52.2254 27.1012 1.59927 0
719 1 Si 165.549 56.0974 1.60069 0
720 1 Si 62.0837 30.5018 1.63164 0
721 1 Si 57.3243 31.1349 1.6132 0
722 1 Si 60.0512 32.771 1.60946 0
723 1 Si 172.55 57.7963 1.61966 0
724 1 Si 166.635 59.684 1.63272 0
725 1 Si 170.111 60.3308 1.62701 0
726 1 Si 65.1216 30.5139 1.61098 0
727 1 Si 178.392 57.3181 1.6318 0
728 1 Si 175.646 59.0745 1.61814 0
729 1 Si 70.0637 30.4511 1.62199 0
730 1 Si 73.1948 31.1868 1.62238 0
731 1 Si 88.083 29.0623 1.60873 0
732 1 Si 203.39 59.3867 1.61658 0
733 1 Si 200.135 60.0119 1.63552 0
734 1 Si 94.9865 29.507 1.63867 0
735 1 Si 98.2485 30.2536 1.62073 0
736 1 Si 2.76281 61.31 1.6117 0
737 1 Si 5.08103 59.0851 1.61297 0
738 1 Si 105.694 59.619 1.63056 0
739 1 Si 102.55 58.7795 1.63407 0
740 1 Si 101.604 55.6721 1.63529 0
741 1 Si 118.089 61.355 1.62375 0
742 1 Si 121.488 61.512 1.63353 0
743 1 Si 26.2018 31.641 1.61037 0
744 1 Si 29.4107 31.2741 1.63147 0
745 1 Si 132.476 58.73 1.61165 0
746 1 Si 135.756 58.7136 1.63562 0
747 1 Si 37.3563 31.8678 1.61106 0
748 1 Si 40.5561 31.7983 1.62238 0
749 1 Si 142.371 58.8383 1.63112 0
750 1 Si 145.58 59.2323 1.63256 0
751 1 Si 47.4169 30.4708 1.62385 0
752 1 Si 50.6542 29.9446 1.63266 0
753 1 Si 152.617 60.1814 1.64035 0
754 1 Si 155.838 60.4212 1.62771 0
755 1 Si 67.5711 32.4391 1.63541 0
756 1 Si 78.9624 31.5483 1.62765 0
757 1 Si 74.4476 34.4279 1.63712 0
758 1 Si 77.7039 34.5434 1.64156 0
759 1 Si 184.127 58.4926 1.62174 0
760 1 Si 180.968 59.507 1.63381 0
761 1 Si 82.1239 31.709 1.58804 0
762 1 Si 187.413 59.4125 1.62788 0
763 1 Si 89.4315 31.9594 1.63241 0
764 1 Si 92.7363 31.9078 1.6147 0
765 1 Si 193.701 61.7668 1.63423 0
766 1 Si 187.8 62.5237 1.62781 0
767 1 Si 190.903 63.1495 1.60254 0
768 1 Si 11.8281 32.9104 1.62983 0
769 1 Si 110.61 61.9313 1.62236 0
770 1 Si 107.177 62.484 1.61741 0
771 1 Si 115.86 63.7892 1.62336 0
772 1 Si 112.616 64.3888 1.6239 0
773 1 Si 19.2208 33.8687 1.62193 0
774 1 Si 13.6881 35.7935 1.61697 0
775 1 Si 16.9324 36.1413 1.62429 0
776 1 Si 129.623 60.4811 1.63302 0
777 1 Si 24.9288 34.5434 1.63427 0
778 1 Si 21.9578 35.604 1.62222 0
779 1 Si 30.2525 34.2666 1.62021 0
780 1 Si 27.6494 36.1046 1.60944 0
781 1 Si 137.267 61.553 1.63782 0
782 1 Si 140.498 61.3393 1.63876 0
783 1 Si 33.0594 35.7664 1.60902 0
784 1 Si 36.2031 34.9366 1.63031 0
785 1 Si 147.75 61.8786 1.62989 0
786 1 Si 151.026 62.98 1.62871 0
787 1 Si 42.6821 34.2086 1.62839 0
788 1 Si 45.8609 33.4484 1.62735 0
789 1 Si 161.032 61.5659 1.6196 0
790 1 Si 157.982 62.8901 1.63014 0
791 1 Si 164.199 62.6466 1.62917 0
792 1 Si 52.048 32.8222 1.61107 0
793 1 Si 55.1551 33.4635 1.62084 0
794 1 Si 176.799 62.2358 1.62096 0
795 1 Si 171.356 63.7767 1.60964 0
796 1 Si 174.619 64.6878 1.60963 0
797 1 Si 60.9932 35.7151 1.62908 0
798 1 Si 66.8184 35.4785 1.63017 0
799 1 Si 63.917 36.6657 1.62408 0
800 1 Si 180.153 62.707 1.6213 0
801 1 Si 82.5451 35.0291 1.6214 0
802 1 Si 88.0404 34.9339 1.60143 0
803 1 Si 85.2351 36.8171 1.62377 0
804 1 Si 199.155 63.0665 1.62079 0
805 1 Si 196.086 63.6887 1.61361 0
806 1 Si 99.1215 33.5174 1.62731 0
807 1 Si 93.5896 34.9537 1.62539 0
808 1 Si 96.6437 35.866 1.65279 0
809 1 Si 4.36089 64.3755 1.64064 0
810 1 Si 199.439 66.2681 1.6331 0
811 1 Si 202.406 67.4565 1.60726 0
812 1 Si 2.18964 66.8533 1.61376 0
813 1 Si 104.72 64.8243 1.64257 0
814 1 Si 101.378 64.0945 1.64021 0
815 1 Si 100.234 61.0148 1.63867 0
816 1 Si 122.804 64.5492 1.63368 0
817 1 Si 117.013 66.7617 1.6382 0
818 1 Si 120.301 66.8094 1.62294 0
819 1 Si 28.8205 39.0014 1.62488 0
820 1 Si 32.0186 38.831 1.61901 0
821 1 Si 129.383 63.7746 1.62418 0
822 1 Si 126.197 65.3021 1.62239 0
823 1 Si 41.5222 37.3278 1.6415 0
824 1 Si 38.2539 37.5772 1.62848 0
825 1 Si 132.472 65.3215 1.61602 0
826 1 Si 135.708 64.4138 1.63801 0
827 1 Si 47.5452 36.3037 1.61962 0
828 1 Si 50.6968 35.7483 1.6149 0
829 1 Si 142.635 63.6405 1.63102 0
830 1 Si 145.76 64.2805 1.63676 0
831 1 Si 55.7837 36.6428 1.61433 0
832 1 Si 58.7029 37.8712 1.62622 0
833 1 Si 156.558 65.8886 1.62024 0
834 1 Si 153.151 65.7688 1.626 0
835 1 Si 67.6897 38.4921 1.62284 0
836 1 Si 73.2676 37.5853 1.63461 0
837 1 Si 70.5997 39.4128 1.61966 0
838 1 Si 79.8904 37.0189 1.61823 0
839 1 Si 185.822 65.0732 1.6197 0
840 1 Si 182.454 65.3304 1.6575 0
841 1 Si 90.8129 36.5425 1.60954 0
842 1 Si 191.161 66.2779 1.60544 0
843 1 Si 188.165 67.4167 1.62841 0
844 1 Si 194.325 66.334 1.6235 0
845 1 Si 12.2219 38.8873 1.61848 0
846 1 Si 7.80393 65.4622 1.62944 0
847 1 Si 8.17892 60.0508 1.61092 0
848 1 Si 11.1601 61.467 1.63636 0
849 1 Si 11.1081 64.5981 1.61812 0
850 1 Si 111.578 67.4683 1.61943 0
851 1 Si 105.553 68.0255 1.62852 0
852 1 Si 108.733 69.1355 1.6523 0
853 1 Si 18.3746 39.1237 1.62554 0
854 1 Si 21.5858 38.7908 1.62329 0
855 1 Si 114.475 68.8946 1.61475 0
856 1 Si 43.2541 40.2122 1.647 0
857 1 Si 46.553 39.5189 1.62613 0
858 1 Si 126.492 68.5582 1.63056 0
859 1 Si 132.22 68.5804 1.62509 0
860 1 Si 129.374 69.9631 1.64177 0