ITEM: TIMESTEP
2052
ITEM: NUMBER OF ATOMS
15417
ITEM: BOX BOUNDS pp pp pp
0.0000000000000000e+00 2.0446099284884539e+02
0.0000000000000000e+00 1.7652036071733309e+02
-1.0000000000000000e+02 1.0000000000000000e+02
ITEM: ATOMS id type element x y z v_uncoordination
1 1 Si 192.147 37.4144 1.61891 0
2 1 Si 189.605 35.4122 1.63679 0
3 1 Si 194.738 35.6187 1.62998 0
4 1 Si 192.294 30.4247 1.6169 0
5 1 Si 189.565 32.1326 1.62302 0
6 1 Si 194.944 32.3788 1.65344 0
7 1 Si 193.343 40.4688 1.63559 0
8 1 Si 186.774 36.8229 1.62742 0
9 1 Si 186.368 39.9536 1.63709 0
10 1 Si 188.652 42.2053 1.5975 0
11 1 Si 191.739 43.1921 1.62883 0
12 1 Si 197.011 37.8184 1.63161 0
13 1 Si 196.503 40.9512 1.60401 0
14 1 Si 108.545 4.34926 1.62267 0
15 1 Si 105.519 5.57813 1.61863 0
16 1 Si 111.198 6.17417 1.63621 0
17 1 Si 110.955 9.52243 1.62839 0
18 1 Si 105.029 9.02728 1.62994 0
19 1 Si 107.898 11.0646 1.62639 0
20 1 Si 108.761 1.07328 1.63116 0
21 1 Si 104.145 2.46564 1.62815 0
22 1 Si 105.941 176.127 1.62204 0
23 1 Si 113.921 4.27994 1.64405 0
24 1 Si 113.949 0.927469 1.64329 0
25 1 Si 111.294 175.569 1.63986 0
26 1 Si 116.743 5.9454 1.6437 0
27 1 Si 116.716 9.28019 1.64056 0
28 1 Si 113.891 11.1577 1.65565 0
29 1 Si 119.507 4.15314 1.63629 0
30 1 Si 119.336 0.884412 1.64313 0
31 1 Si 116.635 175.609 1.64718 0
32 1 Si 122.5 5.56601 1.643 0
33 1 Si 122.574 8.83696 1.62832 0
34 1 Si 119.724 10.6487 1.62287 0
35 1 Si 125.242 3.74105 1.62238 0
36 1 Si 124.814 0.605188 1.63942 0
37 1 Si 122.023 175.671 1.64112 0
38 1 Si 128.539 3.65888 1.64035 0
39 1 Si 130.288 6.33424 1.62619 0
40 1 Si 128.804 9.25676 1.61217 0
41 1 Si 125.615 10.1817 1.64307 0
42 1 Si 130.123 0.798373 1.6047 0
43 1 Si 127.529 175.532 1.62099 0
44 1 Si 133.579 6.29628 1.6129 0
45 1 Si 134.111 9.55849 1.61212 0
46 1 Si 131.363 11.3657 1.62721 0
47 1 Si 135.988 3.90798 1.62768 0
48 1 Si 135.672 0.464073 1.62373 0
49 1 Si 132.811 175.498 1.63199 0
50 1 Si 139.126 5.15785 1.61701 0
51 1 Si 139.743 8.63189 1.62661 0
52 1 Si 137.155 10.804 1.63189 0
53 1 Si 141.297 2.47355 1.61309 0
54 1 Si 137.479 174.093 1.61952 0
55 1 Si 140.655 175.079 1.63179 0
56 1 Si 145.49 8.12361 1.63 0
57 1 Si 144.328 4.19143 1.6149 0
58 1 Si 142.809 10.2035 1.62124 0
59 1 Si 149.142 2.27447 1.61698 0
60 1 Si 146.025 1.28048 1.6268 0
61 1 Si 149.701 175.591 1.61643 0
62 1 Si 145.426 174.32 1.62711 0
63 1 Si 148.241 172.691 1.61532 0
64 1 Si 151.189 4.94963 1.62445 0
65 1 Si 151.399 8.30384 1.64003 0
66 1 Si 148.753 10.2618 1.63166 0
67 1 Si 154.177 3.80662 1.62222 0
68 1 Si 154.503 0.743069 1.61562 0
69 1 Si 152.638 174.802 1.62117 0
70 1 Si 156.953 5.28071 1.6476 0
71 1 Si 156.968 8.35506 1.61452 0
72 1 Si 154.254 10.0019 1.62348 0
73 1 Si 159.604 3.68469 1.60651 0
74 1 Si 159.493 0.621375 1.62631 0
75 1 Si 156.997 175.484 1.63255 0
76 1 Si 162.689 3.41636 1.65198 0
77 1 Si 164.251 6.01919 1.61989 0
78 1 Si 162.658 8.69671 1.62361 0
79 1 Si 159.757 9.75379 1.62826 0
80 1 Si 164.206 0.712435 1.58981 0
81 1 Si 161.858 175.264 1.59916 0
82 1 Si 167.384 5.73669 1.63307 0
83 1 Si 167.704 8.88213 1.64533 0
84 1 Si 165.062 10.6661 1.61895 0
85 1 Si 169.334 3.208 1.62968 0
86 1 Si 169.368 0.00154502 1.62528 0
87 1 Si 166.558 175.255 1.6313 0
88 1 Si 172.456 3.31141 1.63408 0
89 1 Si 174.126 5.91426 1.62472 0
90 1 Si 173.323 9.03265 1.61413 0
91 1 Si 170.448 10.3542 1.62802 0
92 1 Si 174.158 0.622128 1.62901 0
93 1 Si 172.093 174.826 1.62674 0
94 1 Si 176.772 4.07942 1.62282 0
95 1 Si 179.018 6.16523 1.61802 0
96 1 Si 178.305 9.29567 1.62358 0
97 1 Si 175.729 11.2123 1.62031 0
98 1 Si 177.266 0.906501 1.6317 0
99 1 Si 181.807 4.56694 1.60869 0
100 1 Si 183.208 7.4496 1.63235 0
101 1 Si 181.334 10.0722 1.61705 0
102 1 Si 182.391 1.27156 1.6236 0
103 1 Si 179.856 175.46 1.63934 0
104 1 Si 186.375 7.55164 1.618 0
105 1 Si 187.186 4.20224 1.62248 0
106 1 Si 185.687 0.856901 1.63486 0
107 1 Si 194.678 3.57242 1.59342 0
108 1 Si 197.634 2.91715 1.61428 0
109 1 Si 195.438 6.55715 1.60259 0
110 1 Si 198.417 5.89471 1.64305 0
111 1 Si 191.975 2.20976 1.62523 0
112 1 Si 198.356 176.471 1.65195 0
113 1 Si 195.603 174.855 1.62704 0
114 1 Si 192.482 175.691 1.64053 0
115 1 Si 192.466 7.37655 1.63983 0
116 1 Si 190.331 4.89069 1.62508 0
117 1 Si 201.449 6.40605 1.64338 0
118 1 Si 202.542 3.18187 1.63976 0
119 1 Si 201.502 176.415 1.63739 0
120 1 Si 2.20797 6.77099 1.63241 0
121 1 Si 1.24256 3.43193 1.62789 0
122 1 Si 202.11 9.66686 1.61142 0
123 1 Si 0.958816 10.032 1.6125 0
124 1 Si 5.37327 6.43627 1.63309 0
125 1 Si 6.64014 3.48383 1.63197 0
126 1 Si 5.68877 0.495674 1.63159 0
127 1 Si 2.50706 0.238987 1.62529 0
128 1 Si 101.891 10.4984 1.62477 0
129 1 Si 99.1067 4.76465 1.61216 0
130 1 Si 98.9534 8.36066 1.64484 0
131 1 Si 101.017 1.63507 1.64705 0
132 1 Si 193.514 10.4457 1.60958 0
133 1 Si 187.452 10.7662 1.6456 0
134 1 Si 190.565 11.8606 1.59889 0
135 1 Si 196.43 12.1783 1.61581 0
136 1 Si 199.939 12.2753 1.64458 0
137 1 Si 108.025 14.5461 1.63479 0
138 1 Si 105.073 16.263 1.63194 0
139 1 Si 102.195 14.0845 1.62763 0
140 1 Si 113.927 14.5489 1.63185 0
141 1 Si 111.011 16.3736 1.64234 0
142 1 Si 119.699 13.9826 1.61895 0
143 1 Si 116.996 15.9974 1.62371 0
144 1 Si 125.431 13.3594 1.63054 0
145 1 Si 122.726 15.1158 1.64305 0
146 1 Si 131.135 14.7189 1.62937 0
147 1 Si 128.002 15.2402 1.63319 0
148 1 Si 137.597 14.0652 1.61929 0
149 1 Si 132.317 17.916 1.60174 0
150 1 Si 137.148 17.234 1.63337 0
151 1 Si 135.08 19.5934 1.62204 0
152 1 Si 143.118 13.6184 1.61948 0
153 1 Si 140.47 15.3878 1.59553 0
154 1 Si 150.274 13.816 1.63637 0
155 1 Si 145.103 16.2841 1.62628 0
156 1 Si 148.276 16.2967 1.62455 0
157 1 Si 155.822 12.8359 1.61024 0
158 1 Si 152.805 16.4589 1.62633 0
159 1 Si 156.051 16.0553 1.61773 0
160 1 Si 158.978 12.7366 1.59648 0
161 1 Si 164.179 13.7227 1.6601 0
162 1 Si 161.205 14.9169 1.61944 0
163 1 Si 169.854 13.4404 1.58611 0
164 1 Si 167.054 14.8567 1.57236 0
165 1 Si 175.356 14.525 1.63159 0
166 1 Si 172.309 15.4254 1.60004 0
167 1 Si 182.091 13.0966 1.61427 0
168 1 Si 177.506 17.0996 1.63525 0
169 1 Si 180.654 15.9681 1.61062 0
170 1 Si 185.287 13.2364 1.58216 0
171 1 Si 191.477 14.9578 1.61786 0
172 1 Si 194.782 15.0118 1.62215 0
173 1 Si 201.627 15.234 1.63905 0
174 1 Si 2.35142 13.2925 1.63544 0
175 1 Si 0.387134 16.0759 1.6359 0
176 1 Si 183.86 16.1288 1.63376 0
177 1 Si 189.36 17.4525 1.61942 0
178 1 Si 186.166 18.2289 1.62975 0
179 1 Si 196.664 17.614 1.63255 0
180 1 Si 199.868 17.9131 1.62048 0
181 1 Si 5.59968 14.2421 1.62866 0
182 1 Si 7.63264 8.69065 1.62768 0
183 1 Si 7.93101 11.8809 1.63675 0
184 1 Si 105.459 19.9087 1.63685 0
185 1 Si 111.234 19.8838 1.63383 0
186 1 Si 108.37 21.9103 1.62914 0
187 1 Si 123.803 18.0866 1.61234 0
188 1 Si 117.164 19.3379 1.61864 0
189 1 Si 119.735 21.4321 1.61754 0
190 1 Si 122.926 21.1237 1.63034 0
191 1 Si 126.948 18.1543 1.60816 0
192 1 Si 127.948 21.1254 1.62923 0
193 1 Si 131.089 21.0265 1.63239 0
194 1 Si 140.023 18.5144 1.59854 0
195 1 Si 144.654 19.584 1.63138 0
196 1 Si 141.844 21.1515 1.65025 0
197 1 Si 149.376 19.3358 1.60441 0
198 1 Si 147.15 21.6694 1.62531 0
199 1 Si 152.496 19.8588 1.61135 0
200 1 Si 159.168 17.3905 1.61464 0
201 1 Si 169.512 16.748 1.59215 0
202 1 Si 167.632 19.1253 1.57286 0
203 1 Si 161.13 20.032 1.63696 0
204 1 Si 164.525 19.9089 1.59696 0
205 1 Si 176.437 20.4378 1.63305 0
206 1 Si 170.212 21.0399 1.58968 0
207 1 Si 173.331 22.0492 1.63403 0
208 1 Si 190.249 20.4957 1.62983 0
209 1 Si 195.786 20.6328 1.61711 0
210 1 Si 193.02 22.064 1.63295 0
211 1 Si 102.623 21.7478 1.62964 0
212 1 Si 99.4993 16.0072 1.62267 0
213 1 Si 100.147 19.3422 1.62267 0
214 1 Si 114.424 21.202 1.61733 0
215 1 Si 184.815 21.1582 1.60461 0
216 1 Si 178.759 22.8249 1.62628 0
217 1 Si 182.059 22.8849 1.6359 0
218 1 Si 187.757 22.4218 1.6194 0
219 1 Si 200.829 21.0316 1.6365 0
220 1 Si 198.17 22.7543 1.61713 0
221 1 Si 1.41643 19.4168 1.63246 0
222 1 Si 203.861 22.1779 1.62563 0
223 1 Si 4.66021 20.1895 1.6491 0
224 1 Si 6.68682 17.4867 1.63414 0
225 1 Si 108.316 25.6553 1.63974 0
226 1 Si 105.296 27.4372 1.6332 0
227 1 Si 102.615 25.377 1.64085 0
228 1 Si 115.829 24.2436 1.64057 0
229 1 Si 111.085 27.8051 1.63752 0
230 1 Si 114.433 27.1561 1.64624 0
231 1 Si 119.151 24.5941 1.6033 0
232 1 Si 125.48 23.1787 1.61712 0
233 1 Si 135.462 22.8593 1.60966 0
234 1 Si 132.445 24.0338 1.61144 0
235 1 Si 141.038 24.3997 1.61222 0
236 1 Si 137.855 25.0501 1.6236 0
237 1 Si 147.639 25.0266 1.62287 0
238 1 Si 142.347 27.5008 1.62968 0
239 1 Si 145.648 27.9888 1.62943 0
240 1 Si 153.407 23.1322 1.63507 0
241 1 Si 150.942 25.4558 1.62331 0
242 1 Si 159.536 22.9137 1.61895 0
243 1 Si 156.539 24.4216 1.63494 0
244 1 Si 167.114 21.8927 1.61783 0
245 1 Si 165.484 24.4758 1.62715 0
246 1 Si 162.296 24.5635 1.62806 0
247 1 Si 172.78 25.3656 1.59892 0
248 1 Si 167.414 26.9919 1.62645 0
249 1 Si 170.489 27.7219 1.63717 0
250 1 Si 177.978 25.9941 1.61695 0
251 1 Si 175.187 27.5234 1.62398 0
252 1 Si 188.772 25.4583 1.62651 0
253 1 Si 183.199 25.9027 1.60852 0
254 1 Si 186.151 27.1795 1.62818 0
255 1 Si 193.994 25.154 1.62254 0
256 1 Si 191.584 27.194 1.63217 0
257 1 Si 0.0764019 25.569 1.62052 0
258 1 Si 3.35333 26.2748 1.61435 0
259 1 Si 5.69924 23.4676 1.6491 0
260 1 Si 121.834 26.698 1.63243 0
261 1 Si 125.283 26.4674 1.63221 0
262 1 Si 180.622 27.7692 1.61333 0
263 1 Si 197.191 25.7902 1.63453 0
264 1 Si 202.458 28.3548 1.61915 0
265 1 Si 199.155 28.4171 1.62283 0
266 1 Si 104.732 30.9811 1.63144 0
267 1 Si 110.673 31.138 1.62569 0
268 1 Si 107.636 32.6115 1.634 0
269 1 Si 117.085 29.2213 1.63023 0
270 1 Si 120.403 29.547 1.63417 0
271 1 Si 131.444 27.2972 1.6327 0
272 1 Si 128.171 28.6041 1.63614 0
273 1 Si 137.238 28.2712 1.62995 0
274 1 Si 134.118 29.4077 1.63652 0
275 1 Si 140.054 30.0104 1.62497 0
276 1 Si 151.671 28.6267 1.6247 0
277 1 Si 146.63 31.4597 1.62037 0
278 1 Si 149.875 31.3068 1.62471 0
279 1 Si 156.952 27.7274 1.63312 0
280 1 Si 154.634 29.8976 1.622 0
281 1 Si 162.229 27.6137 1.61179 0
282 1 Si 159.694 29.42 1.61114 0
283 1 Si 165.045 28.9731 1.62141 0
284 1 Si 174.564 30.7471 1.61293 0
285 1 Si 171.367 30.8982 1.61458 0
286 1 Si 186.901 30.3161 1.6364 0
287 1 Si 181.182 30.858 1.62951 0
288 1 Si 184.182 31.8835 1.62277 0
289 1 Si 202.914 31.6709 1.61835 0
290 1 Si 1.39705 32.8995 1.62987 0
291 1 Si 3.203 29.8233 1.62866 0
292 1 Si 101.765 32.994 1.63897 0
293 1 Si 99.9991 27.5251 1.62197 0
294 1 Si 99.2643 30.8384 1.62808 0
295 1 Si 116.603 32.338 1.63368 0
296 1 Si 113.454 33.0016 1.62673 0
297 1 Si 121.99 32.4832 1.62613 0
298 1 Si 119.273 34.2506 1.63639 0
299 1 Si 127.943 32.1353 1.62908 0
300 1 Si 125.041 34.0043 1.64015 0
301 1 Si 161.352 32.1732 1.63709 0
302 1 Si 164.577 32.013 1.63633 0
303 1 Si 179.312 33.4115 1.62238 0
304 1 Si 176.172 33.6021 1.63525 0
305 1 Si 184.176 35.0057 1.62825 0
306 1 Si 181.197 35.9769 1.63374 0
307 1 Si 198.043 31.5065 1.61603 0
308 1 Si 200.397 33.7485 1.62156 0
309 1 Si 107.756 35.8799 1.62023 0
310 1 Si 113.687 36.2057 1.62348 0
311 1 Si 110.686 37.0453 1.59623 0
312 1 Si 133.847 32.7191 1.63666 0
313 1 Si 130.772 34.0855 1.63402 0
314 1 Si 139.893 33.4537 1.63041 0
315 1 Si 136.696 34.5628 1.6231 0
316 1 Si 152.439 55.4717 1.62805 0
317 1 Si 149.728 52.9151 1.62836 0
318 1 Si 156.028 55.7076 1.62631 0
319 1 Si 150.568 47.0741 1.63216 0
320 1 Si 148.592 49.5999 1.62746 0
321 1 Si 153.71 47.9558 1.615 0
322 1 Si 155.886 50.3365 1.59872 0
323 1 Si 157.647 53.0126 1.64422 0
324 1 Si 151.463 58.7098 1.62177 0
325 1 Si 146.592 53.8516 1.63665 0
326 1 Si 145.961 57.1121 1.64505 0
327 1 Si 148.208 59.6525 1.61995 0
328 1 Si 158.902 57.7265 1.60382 0
329 1 Si 153.865 61.0569 1.64569 0
330 1 Si 157.072 60.4286 1.62424 0
331 1 Si 145.649 34.9658 1.6401 0
332 1 Si 142.415 35.8805 1.63282 0
333 1 Si 154.802 33.1375 1.62401 0
334 1 Si 151.703 33.9949 1.61779 0
335 1 Si 160.205 35.106 1.62401 0
336 1 Si 157.01 35.5135 1.63359 0
337 1 Si 170.167 33.942 1.63708 0
338 1 Si 166.92 34.171 1.61768 0
339 1 Si 175.292 36.8058 1.61734 0
340 1 Si 172.028 36.7295 1.63643 0
341 1 Si 1.53784 36.4496 1.62646 0
342 1 Si 4.72156 36.7962 1.63848 0
343 1 Si 6.12876 30.9335 1.64507 0
344 1 Si 6.41369 34.1241 1.61076 0
345 1 Si 106.647 38.9785 1.61187 0
346 1 Si 100.882 36.4452 1.63556 0
347 1 Si 101.927 39.5797 1.63175 0
348 1 Si 104.492 41.5505 1.62616 0
349 1 Si 119.361 37.535 1.64527 0
350 1 Si 116.152 38.362 1.63491 0
351 1 Si 125.126 37.4948 1.62939 0
352 1 Si 122.305 39.3774 1.61891 0
353 1 Si 130.721 37.4797 1.63721 0
354 1 Si 127.997 39.3725 1.62972 0
355 1 Si 147.668 37.8566 1.6354 0
356 1 Si 150.834 37.1189 1.64274 0
357 1 Si 9.73597 3.79835 1.62798 0
358 1 Si 10.2159 6.86117 1.60968 0
359 1 Si 12.3001 1.94889 1.6171 0
360 1 Si 7.95595 174.747 1.62013 0
361 1 Si 11.1695 175.43 1.634 0
362 1 Si 13.3113 7.27855 1.61164 0
363 1 Si 14.5959 4.30258 1.61912 0
364 1 Si 19.6199 7.6554 1.6211 0
365 1 Si 17.829 4.77413 1.63342 0
366 1 Si 13.6755 10.4432 1.62399 0
367 1 Si 19.2338 10.9591 1.6232 0
368 1 Si 16.2924 12.3122 1.62862 0
369 1 Si 19.1713 1.85053 1.61669 0
370 1 Si 22.2942 1.48089 1.60133 0
371 1 Si 18.8138 175.171 1.63661 0
372 1 Si 22.0973 174.864 1.60884 0
373 1 Si 162.38 37.4931 1.63515 0
374 1 Si 165.53 37.0411 1.62392 0
375 1 Si 22.8077 7.90274 1.63456 0
376 1 Si 25.1382 5.83532 1.61145 0
377 1 Si 25.1748 2.71455 1.62285 0
378 1 Si 37.315 4.00698 1.63759 0
379 1 Si 37.4487 7.34932 1.61329 0
380 1 Si 34.6369 2.04132 1.61523 0
381 1 Si 34.3 8.10196 1.61352 0
382 1 Si 32.9274 4.94689 1.6281 0
383 1 Si 40.1057 2.47223 1.63951 0
384 1 Si 42.5891 4.72102 1.63463 0
385 1 Si 42.7186 8.09968 1.6299 0
386 1 Si 39.9073 9.73783 1.64073 0
387 1 Si 39.9548 175.631 1.63687 0
388 1 Si 37.4136 173.405 1.63331 0
389 1 Si 34.4186 175.003 1.63853 0
390 1 Si 180.596 39.0909 1.63762 0
391 1 Si 177.312 39.5565 1.63871 0
392 1 Si 45.394 3.18412 1.62963 0
393 1 Si 48.1197 4.94337 1.63372 0
394 1 Si 48.14 8.13557 1.63235 0
395 1 Si 45.4562 9.99011 1.63526 0
396 1 Si 45.38 176.454 1.63388 0
397 1 Si 42.879 174.32 1.64312 0
398 1 Si 51.0421 3.5883 1.62749 0
399 1 Si 51.1247 0.453167 1.63776 0
400 1 Si 48.3568 175.368 1.63636 0
401 1 Si 183.309 40.9683 1.61772 0
402 1 Si 53.9562 4.93157 1.62641 0
403 1 Si 53.9557 8.06757 1.6437 0
404 1 Si 51.0754 9.41751 1.63459 0
405 1 Si 56.7903 3.4614 1.62588 0
406 1 Si 57.0009 0.303423 1.63554 0
407 1 Si 54.0465 175.71 1.62502 0
408 1 Si 200.02 37.0175 1.63256 0
409 1 Si 59.5029 5.08921 1.61367 0
410 1 Si 59.5676 8.32831 1.6382 0
411 1 Si 56.6758 9.72371 1.63605 0
412 1 Si 61.5358 2.64474 1.63622 0
413 1 Si 59.4836 174.757 1.62927 0
414 1 Si 62.294 176.024 1.63489 0
415 1 Si 65.9123 6.096 1.62966 0
416 1 Si 64.4596 3.41351 1.63183 0
417 1 Si 65.1103 9.08525 1.63049 0
418 1 Si 62.1461 10.2866 1.64658 0
419 1 Si 68.6576 4.64822 1.62891 0
420 1 Si 68.9839 1.58591 1.63147 0
421 1 Si 66.0723 0.773541 1.61991 0
422 1 Si 109.629 39.9704 1.59273 0
423 1 Si 71.3283 6.06589 1.63517 0
424 1 Si 70.774 9.13118 1.63807 0
425 1 Si 67.9171 10.5819 1.63787 0
426 1 Si 73.8173 4.21001 1.63615 0
427 1 Si 73.7899 1.0459 1.64171 0
428 1 Si 71.1414 175.921 1.64889 0
429 1 Si 115.031 41.4107 1.63646 0
430 1 Si 111.839 42.1717 1.61827 0
431 1 Si 90.4497 3.17996 1.59685 0
432 1 Si 87.2907 2.93733 1.63931 0
433 1 Si 93.1099 4.96601 1.63697 0
434 1 Si 92.8068 8.12568 1.61691 0
435 1 Si 85.7907 5.59099 1.60068 0
436 1 Si 86.8687 8.52925 1.60104 0
437 1 Si 89.9122 9.67811 1.62137 0
438 1 Si 90.4175 0.0394641 1.61068 0
439 1 Si 85.5268 0.275173 1.61372 0
440 1 Si 87.8748 174.762 1.62715 0
441 1 Si 96.0761 3.6228 1.62133 0
442 1 Si 95.8947 0.492977 1.60369 0
443 1 Si 93.2127 175.422 1.62584 0
444 1 Si 136.402 37.8139 1.6224 0
445 1 Si 133.51 39.2848 1.61344 0
446 1 Si 95.6924 9.71702 1.60971 0
447 1 Si 101.023 174.219 1.62065 0
448 1 Si 98.6772 171.821 1.6173 0
449 1 Si 96.4972 173.971 1.62418 0
450 1 Si 141.925 39.3171 1.62518 0
451 1 Si 138.766 40.0804 1.62148 0
452 1 Si 11.123 12.4518 1.62576 0
453 1 Si 147.237 41.3088 1.6378 0
454 1 Si 144.024 42.0732 1.62667 0
455 1 Si 24.4309 10.699 1.62765 0
456 1 Si 21.9898 12.8331 1.6282 0
457 1 Si 156.199 38.6475 1.64079 0
458 1 Si 153.102 39.4657 1.63413 0
459 1 Si 28.0415 7.05781 1.59373 0
460 1 Si 27.7162 10.2385 1.64796 0
461 1 Si 29.7617 4.32733 1.63807 0
462 1 Si 28.1298 1.42288 1.60903 0
463 1 Si 33.7814 11.501 1.6339 0
464 1 Si 30.371 12.2292 1.62208 0
465 1 Si 161.477 40.5475 1.6392 0
466 1 Si 158.364 41.04 1.64622 0
467 1 Si 170.59 39.6107 1.61439 0
468 1 Si 167.439 39.5235 1.62 0
469 1 Si 39.9075 13.2576 1.60914 0
470 1 Si 36.6111 13.8048 1.60878 0
471 1 Si 45.945 13.2733 1.62093 0
472 1 Si 42.0614 16.5057 1.61588 0
473 1 Si 45.282 16.5336 1.6329 0
474 1 Si 176.57 42.8152 1.63407 0
475 1 Si 171.07 42.809 1.63538 0
476 1 Si 173.692 44.5467 1.6312 0
477 1 Si 204.372 39.521 1.6454 0
478 1 Si 201.156 40.1359 1.62959 0
479 1 Si 76.6648 5.52394 1.62313 0
480 1 Si 76.6836 8.79612 1.64319 0
481 1 Si 73.7484 10.1551 1.62628 0
482 1 Si 1.22729 42.5395 1.62966 0
483 1 Si 4.47431 42.1113 1.61333 0
484 1 Si 6.39377 39.5402 1.63152 0
485 1 Si 78.0292 2.51216 1.63213 0
486 1 Si 76.5119 175.992 1.60977 0
487 1 Si 82.6462 5.55173 1.59392 0
488 1 Si 81.1965 2.54195 1.62865 0
489 1 Si 83.6396 8.69846 1.63595 0
490 1 Si 82.2585 11.6079 1.62775 0
491 1 Si 78.8851 11.2771 1.62213 0
492 1 Si 82.4469 175.949 1.63562 0
493 1 Si 122.924 42.8804 1.63017 0
494 1 Si 116.898 44.0489 1.6169 0
495 1 Si 120.231 44.863 1.63912 0
496 1 Si 128.693 42.8119 1.6281 0
497 1 Si 125.997 44.7701 1.6377 0
498 1 Si 134.338 42.5051 1.62834 0
499 1 Si 131.77 44.5403 1.63072 0
500 1 Si 12.0307 15.4915 1.61977 0
501 1 Si 15.2715 15.4128 1.61409 0
502 1 Si 152.535 42.6277 1.64558 0
503 1 Si 149.584 43.8311 1.61838 0
504 1 Si 22.5224 16.0965 1.64851 0
505 1 Si 28.9746 15.1694 1.61893 0
506 1 Si 25.8812 16.4478 1.6271 0
507 1 Si 166.428 42.4942 1.63595 0
508 1 Si 163.4 43.1324 1.63008 0
509 1 Si 51.2622 12.5149 1.64065 0
510 1 Si 48.8627 14.4251 1.61878 0
511 1 Si 184.266 44.0585 1.63934 0
512 1 Si 178.9 45.0557 1.61594 0
513 1 Si 181.955 46.1576 1.63245 0
514 1 Si 56.3435 12.8547 1.63955 0
515 1 Si 53.6935 14.4511 1.62405 0
516 1 Si 199.056 42.9271 1.6227 0
517 1 Si 61.697 13.4426 1.6141 0
518 1 Si 58.8139 14.6837 1.62179 0
519 1 Si 68.0716 13.7036 1.60963 0
520 1 Si 63.1385 16.2845 1.64036 0
521 1 Si 66.2828 16.3382 1.63644 0
522 1 Si 73.7589 13.2621 1.61797 0
523 1 Si 71.0219 14.7808 1.62648 0
524 1 Si 98.1633 38.2786 1.59689 0
525 1 Si 99.2416 41.2879 1.58702 0
526 1 Si 110.87 45.2185 1.61912 0
527 1 Si 107.781 46.5499 1.63144 0
528 1 Si 104.625 45.1541 1.62155 0
529 1 Si 84.3751 14.3778 1.63349 0
530 1 Si 76.8736 13.8538 1.6027 0
531 1 Si 76.5245 17.0465 1.6347 0
532 1 Si 82.5087 17.1484 1.61277 0
533 1 Si 79.4311 18.3408 1.61315 0
534 1 Si 114.111 45.8521 1.61653 0
535 1 Si 90.6229 12.8385 1.61737 0
536 1 Si 87.9084 14.9567 1.64254 0
537 1 Si 94.0761 12.6577 1.63423 0
538 1 Si 96.2416 15.1494 1.62665 0
539 1 Si 137.641 43.1734 1.62055 0
540 1 Si 9.9769 18.0285 1.63244 0
541 1 Si 143.226 45.4221 1.62842 0
542 1 Si 139.821 45.8365 1.62874 0
543 1 Si 16.7156 18.2906 1.6325 0
544 1 Si 20.0097 18.4827 1.61358 0
545 1 Si 154.728 44.9387 1.61914 0
546 1 Si 157.756 44.1651 1.64487 0
547 1 Si 37.291 17.108 1.64443 0
548 1 Si 31.4443 17.1848 1.62056 0
549 1 Si 34.4136 18.2044 1.63523 0
550 1 Si 168.545 44.7925 1.62746 0
551 1 Si 39.0978 19.9836 1.63537 0
552 1 Si 42.3161 20.141 1.61604 0
553 1 Si 187.327 45.0738 1.6002 0
554 1 Si 49.9485 17.4071 1.63476 0
555 1 Si 47.4098 19.2398 1.6363 0
556 1 Si 192.638 46.3859 1.61363 0
557 1 Si 189.536 47.4279 1.65037 0
558 1 Si 198.587 46.5272 1.63355 0
559 1 Si 204.456 45.6937 1.61082 0
560 1 Si 201.656 48.0459 1.63014 0
561 1 Si 120.927 48.0954 1.60756 0
562 1 Si 115.116 48.7618 1.63667 0
563 1 Si 118.146 49.4462 1.63375 0
564 1 Si 126.983 48.1975 1.63421 0
565 1 Si 122.464 51.0186 1.64294 0
566 1 Si 125.609 51.2748 1.62174 0
567 1 Si 132.657 47.8867 1.63126 0
568 1 Si 129.906 49.6781 1.63551 0
569 1 Si 145.434 48.2263 1.61073 0
570 1 Si 11.3934 21.0398 1.62438 0
571 1 Si 14.8157 21.0492 1.62554 0
572 1 Si 162.867 46.2957 1.63454 0
573 1 Si 159.781 46.6095 1.62469 0
574 1 Si 167.789 47.9033 1.6521 0
575 1 Si 164.785 48.9171 1.6319 0
576 1 Si 29.9693 19.8901 1.61669 0
577 1 Si 26.929 19.3778 1.6399 0
578 1 Si 35.1022 21.2636 1.60301 0
579 1 Si 32.1835 21.974 1.65831 0
580 1 Si 177.75 47.9476 1.60865 0
581 1 Si 172.612 47.7481 1.6357 0
582 1 Si 175.093 49.5974 1.62294 0
583 1 Si 53.1082 17.5752 1.62963 0
584 1 Si 58.3639 17.7334 1.61484 0
585 1 Si 55.7105 19.4365 1.61224 0
586 1 Si 182.813 49.2851 1.61363 0
587 1 Si 179.83 50.2453 1.60027 0
588 1 Si 195.35 48.4987 1.62978 0
589 1 Si 61.253 18.9009 1.60456 0
590 1 Si 70.8291 17.8808 1.62183 0
591 1 Si 67.875 19.1228 1.61412 0
592 1 Si 3.22937 46.4441 1.62414 0
593 1 Si 6.14011 44.8182 1.61545 0
594 1 Si 73.7935 18.9753 1.64036 0
595 1 Si 83.8759 20.0567 1.61691 0
596 1 Si 78.711 21.5612 1.61689 0
597 1 Si 81.7708 22.4737 1.62039 0
598 1 Si 107.981 49.8013 1.61932 0
599 1 Si 113.362 51.3145 1.61961 0
600 1 Si 110.346 51.8497 1.63397 0
601 1 Si 89.0119 18.0999 1.62105 0
602 1 Si 86.9894 20.6285 1.62278 0
603 1 Si 201.949 51.6494 1.62715 0
604 1 Si 0.725509 51.4775 1.63301 0
605 1 Si 3.34185 49.5568 1.63799 0
606 1 Si 94.8861 18.0144 1.61482 0
607 1 Si 92.0185 19.2995 1.64684 0
608 1 Si 105.791 52.1158 1.62905 0
609 1 Si 102.896 50.9381 1.6252 0
610 1 Si 102.134 47.7519 1.61643 0
611 1 Si 97.144 20.2796 1.62979 0
612 1 Si 118.274 52.5017 1.6147 0
613 1 Si 115.433 53.6085 1.63103 0
614 1 Si 9.15548 23.5931 1.62996 0
615 1 Si 138.84 49.0522 1.63524 0
616 1 Si 135.549 49.7446 1.65617 0
617 1 Si 20.0331 21.7718 1.61291 0
618 1 Si 25.6463 22.1152 1.64649 0
619 1 Si 22.7924 23.3325 1.63031 0
620 1 Si 144.387 51.3206 1.62762 0
621 1 Si 141.157 51.5735 1.625 0
622 1 Si 158.954 49.6282 1.60401 0
623 1 Si 170.142 49.9974 1.62547 0
624 1 Si 37.712 22.9545 1.61847 0
625 1 Si 188.534 50.5071 1.61788 0
626 1 Si 185.315 51.3218 1.62568 0
627 1 Si 47.8633 22.6609 1.62173 0
628 1 Si 44.47 23.4789 1.62036 0
629 1 Si 194.111 52.2804 1.62175 0
630 1 Si 190.851 52.8037 1.62552 0
631 1 Si 121.024 53.9408 1.60288 0
632 1 Si 129.854 52.9816 1.62799 0
633 1 Si 126.931 54.3799 1.62565 0
634 1 Si 17.1697 23.3856 1.62444 0
635 1 Si 10.6077 26.5227 1.64947 0
636 1 Si 16.9503 26.7243 1.64073 0
637 1 Si 13.755 27.6127 1.61748 0
638 1 Si 135.313 53.0028 1.61992 0
639 1 Si 132.576 54.6755 1.6159 0
640 1 Si 28.0541 24.042 1.63682 0
641 1 Si 23.7938 26.3278 1.63446 0
642 1 Si 26.8716 26.8168 1.62364 0
643 1 Si 31.0355 24.6996 1.63342 0
644 1 Si 160.761 52.2098 1.6116 0
645 1 Si 164.03 52.1297 1.64052 0
646 1 Si 37.6332 26.2051 1.63015 0
647 1 Si 32.0843 27.547 1.63677 0
648 1 Si 35.0979 28.207 1.61414 0
649 1 Si 178.414 53.0322 1.64145 0
650 1 Si 175.219 52.789 1.6322 0
651 1 Si 57.226 22.3134 1.63028 0
652 1 Si 51.2844 24.9138 1.6242 0
653 1 Si 55.0102 24.8223 1.61633 0
654 1 Si 60.7454 22.0758 1.62585 0
655 1 Si 184.184 54.4033 1.62244 0
656 1 Si 180.949 55.0218 1.6241 0
657 1 Si 200.804 55.2313 1.62372 0
658 1 Si 194.683 55.8052 1.6295 0
659 1 Si 197.772 57.1196 1.63227 0
660 1 Si 67.071 22.2931 1.6282 0
661 1 Si 63.8367 23.6377 1.62362 0
662 1 Si 2.41876 54.0385 1.60829 0
663 1 Si 5.43423 53.3811 1.62154 0
664 1 Si 6.45161 50.4753 1.6231 0
665 1 Si 73.0502 22.167 1.61729 0
666 1 Si 70.0631 23.8665 1.62411 0
667 1 Si 106.634 55.2425 1.63822 0
668 1 Si 104.934 58.0099 1.61515 0
669 1 Si 101.872 56.7083 1.62009 0
670 1 Si 100.976 53.5087 1.63329 0
671 1 Si 109.737 54.9343 1.62917 0
672 1 Si 76.0159 23.5442 1.62025 0
673 1 Si 87.9104 23.7085 1.63414 0
674 1 Si 82.6892 25.4809 1.63515 0
675 1 Si 85.8173 26.0494 1.62004 0
676 1 Si 115.142 56.6582 1.63421 0
677 1 Si 112.024 57.0413 1.65207 0
678 1 Si 92.9038 22.3889 1.62089 0
679 1 Si 90.8887 24.776 1.63381 0
680 1 Si 96.0007 23.2081 1.6212 0
681 1 Si 120.746 57.1518 1.63863 0
682 1 Si 117.766 58.4337 1.6289 0
683 1 Si 140.723 54.8513 1.62707 0
684 1 Si 137.591 55.272 1.63182 0
685 1 Si 97.0587 26.23 1.62036 0
686 1 Si 8.73216 29.1098 1.60373 0
687 1 Si 142.716 57.5545 1.63659 0
688 1 Si 19.4235 29.2084 1.60788 0
689 1 Si 22.7584 29.2625 1.63589 0
690 1 Si 169.626 53.2909 1.6268 0
691 1 Si 166.451 54.5377 1.63356 0
692 1 Si 172.607 54.7453 1.64121 0
693 1 Si 43.4015 27.2115 1.63368 0
694 1 Si 40.118 28.2685 1.6159 0
695 1 Si 51.1377 28.2511 1.62199 0
696 1 Si 45.2466 30.2008 1.62918 0
697 1 Si 48.6252 30.6418 1.63147 0
698 1 Si 189.671 55.8666 1.62466 0
699 1 Si 186.501 56.7001 1.63133 0
700 1 Si 75.3913 26.7972 1.62657 0
701 1 Si 80.9823 28.1286 1.62096 0
702 1 Si 77.8401 28.8234 1.6204 0
703 1 Si 203.302 57.5045 1.62308 0
704 1 Si 2.00616 57.1197 1.61862 0
705 1 Si 111.574 60.034 1.58379 0
706 1 Si 105.722 61.384 1.59397 0
707 1 Si 110.306 62.7894 1.60368 0
708 1 Si 107.666 64.2323 1.57547 0
709 1 Si 126.209 57.778 1.64535 0
710 1 Si 123.171 59.2914 1.61758 0
711 1 Si 13.7133 30.8329 1.62536 0
712 1 Si 10.6984 31.5423 1.63028 0
713 1 Si 18.9338 32.5032 1.6222 0
714 1 Si 15.7926 33.266 1.63131 0
715 1 Si 133.445 57.7766 1.62845 0
716 1 Si 128.465 60.2176 1.63075 0
717 1 Si 131.695 60.3838 1.6241 0
718 1 Si 136.6 58.303 1.62035 0
719 1 Si 29.2532 28.7988 1.63036 0
720 1 Si 38.5083 31.3035 1.63373 0
721 1 Si 35.1047 31.4214 1.60472 0
722 1 Si 165.799 57.9376 1.64092 0
723 1 Si 162.374 58.5436 1.62608 0
724 1 Si 57.2289 27.498 1.61743 0
725 1 Si 54.3495 29.0925 1.61615 0
726 1 Si 179.865 57.9617 1.63454 0
727 1 Si 173.526 57.866 1.62994 0
728 1 Si 176.707 58.5975 1.60225 0
729 1 Si 63.6607 26.9528 1.61215 0
730 1 Si 60.7476 28.6325 1.63445 0
731 1 Si 69.6557 27.2059 1.62894 0
732 1 Si 66.5727 28.6535 1.61169 0
733 1 Si 192.02 58.1321 1.61549 0
734 1 Si 185.42 59.8208 1.63188 0
735 1 Si 182.192 60.2038 1.61922 0
736 1 Si 72.623 28.6649 1.62052 0
737 1 Si 200.469 61.8833 1.60494 0
738 1 Si 203.345 60.7052 1.62623 0
739 1 Si 197.626 60.575 1.62336 0
740 1 Si 4.90695 58.3862 1.62835 0
741 1 Si 6.97463 56.0224 1.62854 0
742 1 Si 91.7929 27.8507 1.62654 0
743 1 Si 86.4975 29.1246 1.62222 0
744 1 Si 89.5196 30.1306 1.63894 0
745 1 Si 94.8752 28.6021 1.61712 0
746 1 Si 117.122 61.5327 1.61795 0
747 1 Si 114.035 61.9387 1.59994 0
748 1 Si 9.52814 34.3962 1.62774 0
749 1 Si 122.314 62.6177 1.62659 0
750 1 Si 119.193 64.0372 1.62195 0
751 1 Si 25.3103 31.4957 1.64624 0
752 1 Si 21.2095 34.965 1.64616 0
753 1 Si 24.5705 34.5708 1.64224 0
754 1 Si 28.6891 31.7868 1.63259 0
755 1 Si 141.737 60.7267 1.6278 0
756 1 Si 138.448 60.9396 1.62569 0
757 1 Si 40.4713 33.9738 1.61203 0
758 1 Si 43.7174 33.2725 1.62348 0
759 1 Si 147.344 63.0104 1.63038 0
760 1 Si 143.809 63.4552 1.62621 0
761 1 Si 171.724 60.643 1.63459 0
762 1 Si 168.271 60.7297 1.62256 0
763 1 Si 54.8351 32.141 1.6213 0
764 1 Si 49.4909 33.9286 1.63121 0
765 1 Si 52.5779 34.3022 1.6049 0
766 1 Si 62.377 31.6278 1.62444 0
767 1 Si 57.3693 33.9716 1.6062 0
768 1 Si 60.5536 34.2986 1.6389 0
769 1 Si 83.4799 30.1517 1.6211 0
770 1 Si 76.7177 31.8526 1.61016 0
771 1 Si 82.4776 33.094 1.62776 0
772 1 Si 79.3067 33.7775 1.62893 0
773 1 Si 177.055 61.7289 1.60293 0
774 1 Si 174.148 63.0343 1.61916 0
775 1 Si 190.745 61.4728 1.61145 0
776 1 Si 187.555 62.2764 1.61722 0
777 1 Si 95.9974 31.6315 1.6227 0
778 1 Si 200.866 64.9933 1.61567 0
779 1 Si 0.787448 63.2994 1.62616 0
780 1 Si 203.715 66.1579 1.62411 0
781 1 Si 127.962 63.4112 1.62434 0
782 1 Si 124.938 64.6059 1.62901 0
783 1 Si 11.4498 36.8793 1.63735 0
784 1 Si 14.6699 36.3517 1.63075 0
785 1 Si 133.325 63.2146 1.6219 0
786 1 Si 130.763 65.1558 1.63575 0
787 1 Si 136.612 63.6625 1.6257 0
788 1 Si 31.9414 32.8392 1.62629 0
789 1 Si 153.292 64.3173 1.62168 0
790 1 Si 150.119 65.3409 1.6251 0
791 1 Si 31.1492 35.9556 1.63779 0
792 1 Si 40.0912 37.3198 1.62912 0
793 1 Si 33.9711 37.9984 1.60383 0
794 1 Si 37.2609 39.0863 1.63329 0
795 1 Si 45.1644 36.2602 1.61309 0
796 1 Si 48.3933 37.0772 1.62498 0
797 1 Si 162.266 61.7631 1.61993 0
798 1 Si 159.253 62.7464 1.60532 0
799 1 Si 167.433 64.1034 1.63048 0
800 1 Si 164.155 64.3819 1.62055 0
801 1 Si 65.777 31.8593 1.62548 0
802 1 Si 180.135 62.6351 1.63546 0
803 1 Si 73.452 31.8697 1.63104 0
804 1 Si 196.436 63.724 1.60431 0
805 1 Si 191.251 64.8395 1.62722 0
806 1 Si 194.164 66.0451 1.64385 0
807 1 Si 198.181 66.4791 1.61621 0
808 1 Si 90.367 33.1902 1.62238 0
809 1 Si 84.7808 35.3106 1.6198 0
810 1 Si 88.0363 35.448 1.62791 0
811 1 Si 103.294 63.5449 1.61599 0
812 1 Si 99.547 58.9703 1.64664 0
813 1 Si 100.26 62.2467 1.63658 0
814 1 Si 112.719 64.758 1.59573 0
815 1 Si 93.5356 33.958 1.6084 0
816 1 Si 117.67 67.1734 1.63891 0
817 1 Si 114.349 67.4453 1.63852 0
818 1 Si 9.68415 39.5639 1.63802 0
819 1 Si 16.7533 38.8924 1.64802 0
820 1 Si 20.115 38.0869 1.62465 0
821 1 Si 138.45 66.3834 1.61775 0
822 1 Si 141.852 66.3172 1.6249 0
823 1 Si 27.5869 36.2596 1.63865 0
824 1 Si 159.088 65.9838 1.61989 0
825 1 Si 155.77 66.6527 1.62387 0
826 1 Si 43.0957 38.7975 1.61322 0
827 1 Si 169.269 67.0414 1.61549 0
828 1 Si 175.203 66.2319 1.63606 0
829 1 Si 172.527 68.0391 1.63015 0
830 1 Si 55.061 36.1036 1.62529 0
831 1 Si 186.791 65.4841 1.62717 0
832 1 Si 180.906 65.6855 1.61543 0
833 1 Si 183.893 66.9055 1.62109 0
834 1 Si 68.1587 34.3746 1.62584 0
835 1 Si 61.6055 37.3937 1.64367 0
836 1 Si 67.4056 37.5575 1.61367 0
837 1 Si 64.4021 39.0354 1.62654 0
838 1 Si 71.5962 34.588 1.63163 0
839 1 Si 79.3526 36.9535 1.62851 0
840 1 Si 73.2695 37.5691 1.62646 0
841 1 Si 76.6394 38.8523 1.64443 0
842 1 Si 189.267 67.5892 1.60408 0
843 1 Si 82.5674 37.6667 1.61997 0
844 1 Si 3.94744 63.3436 1.62382 0
845 1 Si 0.0225169 69.2899 1.63913 0
846 1 Si 3.09662 68.8125 1.61019 0
847 1 Si 4.92576 66.2682 1.64794 0
848 1 Si 109.102 67.3923 1.62837 0
849 1 Si 106.302 68.818 1.61697 0
850 1 Si 103.787 66.7955 1.6199 0
851 1 Si 6.29932 61.1848 1.6286 0
852 1 Si 92.6401 37.1385 1.62835 0
853 1 Si 95.0489 39.1713 1.64098 0
854 1 Si 124.946 67.8233 1.63602 0
855 1 Si 119.171 70.1609 1.62188 0
856 1 Si 122.445 69.8767 1.60907 0
857 1 Si 11.5701 42.1539 1.63165 0
858 1 Si 14.938 41.7815 1.63995 0
859 1 Si 130.916 68.3968 1.63459 0
860 1 Si 127.806 69.3887 1.6225 0