LAMMPS data file via write_data, version 2 Aug 2023, timestep = 189, units = metal

15852 atoms
2 atom types

7.102810205369464 199.0601870767059 xlo xhi
7.882723864537486 171.09616133156348 ylo yhi
-100 100 zlo zhi

Masses

1 28.085
2 15.999

Atoms # full

6760 1 1 0 7.997073567694715 9.718168542041886 -1.6508685231662377 0 0 0
6766 1 1 0 11.124076895370438 9.830699598644438 -1.6486994113955558 0 0 0
9515 1 2 0 9.575387915632533 9.377307328088882 -2.1727965511818055 0 0 0
9524 1 2 0 12.52643063243444 9.073745028904648 -2.181791761364747 0 0 0
9512 1 2 0 7.474716039724392 11.192571751673311 -2.2217088810097545 0 0 0
6759 1 1 0 7.186113793803638 12.71934659130811 -1.6510650885994629 0 0 0
9522 1 2 0 11.34530752929554 11.361227717325546 -2.262261542753289 0 0 0
6765 1 1 0 12.072371152177398 12.67129417214616 -1.566461228719776 0 0 0
13371 1 2 0 11.085777930850224 9.708593346529081 -4.136427594709583e-06 0 0 0
13370 1 2 0 12.434959760070216 12.274702088019769 -6.221113897826378e-06 0 0 0
13365 1 2 0 8.011562047522474 9.687154773950027 -1.8909910767997137e-06 0 0 0
9513 1 2 0 8.368816600352252 13.675896423672443 -2.3141928457558465 0 0 0
6901 1 1 0 13.85975810282522 8.20381879526803 -1.6478978283894918 0 1 0
9721 1 2 0 15.430516206539151 8.518031389275494 -2.18727928898518 0 0 0
6900 1 1 0 16.99944203129629 8.846556395022612 -1.6484107298557324 0 0 0
9719 1 2 0 17.370784310981627 10.3560077339073 -2.2328543804986243 0 0 0
9717 1 2 0 15.97378284116797 12.633914245599936 -2.2457493363631884 0 0 0
6899 1 1 0 17.3122065267751 11.89836633358251 -1.6451036713746423 0 0 0
9523 1 2 0 13.457976815503155 13.189714140094777 -2.2979934393605226 0 0 0
13504 1 2 0 17.28346664049894 11.840849328830952 -1.926190826225666e-05 0 0 0
13505 1 2 0 16.963229868802834 8.775092690037551 -1.6231804744933155e-05 0 0 0
13506 1 2 0 13.905495364287932 8.294105229783563 -1.0917148254396216e-05 0 1 0
9722 1 2 0 18.3054216349296 7.898160564800643 -2.1612989171449817 0 0 0
9729 1 2 0 20.947984039759387 8.875102906698933 -2.195910512863246 0 0 0
6905 1 1 0 21.714644565455348 10.256870175487027 -1.6484900443209223 0 0 0
9720 1 2 0 18.582595087380934 12.807128516398416 -2.1824480201067296 0 0 0
9725 1 2 0 20.912451683078412 11.567195325585011 -2.2598922380069597 0 0 0
9730 1 2 0 23.269876108407573 10.480710376312542 -2.18991123359653 0 0 0
6902 1 1 0 20.145146091602804 12.88712175296484 -1.6473608413853944 0 0 0
13510 1 2 0 21.709203491753254 10.223351926687888 -2.8335023475330152e-05 0 0 0
13507 1 2 0 20.212264904608695 12.875343117657092 -3.57927085536341e-05 0 0 0
9740 1 2 0 25.71528892619618 9.716073122226772 -2.129035761372136 0 0 0
6916 1 1 0 26.712345009360263 8.413298225803045 -1.642489882665076 0 0 0
9746 1 2 0 28.176585948884995 8.949538737452816 -2.2016648660380085 0 0 0
6915 1 1 0 29.45423727742347 9.841700928611663 -1.6485309695348902 0 0 0
6911 1 1 0 24.747817689267084 11.039236595930443 -1.64634355784937 0 0 0
9743 1 2 0 29.373687056898834 11.428104269448584 -2.197603767699227 0 0 0
9737 1 2 0 24.987737643243918 12.686388913983178 -2.151365292671958 0 0 0
13521 1 2 0 26.573153926262545 8.328331608207634 -1.1161770828399639e-05 0 0 0
13516 1 2 0 24.847719535482245 11.123243600202915 -3.408584496170033e-05 0 0 0
6913 1 1 0 29.89320305281802 12.931583166500635 -1.6477638709709308 0 0 0
9747 1 2 0 30.758937327711397 8.980890292300291 -2.222283277353179 0 0 0
9756 1 2 0 33.35116340521831 8.346483390692992 -2.153554400722606 0 0 0
6921 1 1 0 33.9774530637896 9.798953186030879 -1.6438344320782508 0 0 0
6917 1 1 0 32.829694329208074 12.51774483844476 -1.6421212840224282 0 0 0
9750 1 2 0 32.93786520047588 10.971785219741705 -2.1932930756182873 0 0 0
9744 1 2 0 31.435829268698868 13.16742006048005 -2.211876200938423 0 0 0
13518 1 2 0 29.787582350648535 12.902005315779505 -1.1163657449969789e-05 0 0 0
9749 1 2 0 34.12023688681862 13.398557609358326 -2.198799483940083 0 0 0
9757 1 2 0 35.46750890151837 10.145376720934973 -2.265065669234544 0 0 0
9771 1 2 0 38.05201608099388 9.856194882030795 -2.171327857412545 0 0 0
6933 1 1 0 38.69146766836589 8.418114532336029 -1.6429859632199466 0 0 0
9774 1 2 0 40.27365055595678 8.484940180620304 -2.1896641554198997 0 0 0
6930 1 1 0 36.84005871040721 10.852388823019353 -1.6445876996714295 0 0 0
9763 1 2 0 37.09559489931728 12.396139462265067 -2.2232170204472386 0 0 0
6932 1 1 0 41.5337515600986 9.341023924917813 -1.5005561673068593 0 0 0
9775 1 2 0 42.869063971620356 8.429724549795507 -1.326947576015219 0 0 0
9779 1 2 0 45.4297844718775 8.099093787317006 -2.2530237718316384 0 0 0
6935 1 1 0 46.34990223129593 9.36198205201268 -1.6549024716802927 0 0 0
9772 1 2 0 42.14990017669463 10.627870144071204 -2.344784421744783 0 0 0
6931 1 1 0 42.518787304129624 12.097883612623722 -1.651240424621553 0 0 0
9773 1 2 0 43.97874775077996 12.751147801821608 -2.192684720627519 0 0 0
6934 1 1 0 45.525183946664875 12.337251076405007 -1.6438622074499758 0 0 0
9777 1 2 0 45.66636064881295 10.772735769723317 -2.1635203752625136 0 0 0
9765 1 2 0 41.090299241109754 12.846469235734665 -2.066274889983214 0 0 0
9778 1 2 0 46.8570931642307 13.183774350489143 -2.219467131688911 0 0 0
9780 1 2 0 47.88428495606312 9.382332286099885 -2.302079603961958 0 0 0
6942 1 1 0 49.30886832212259 9.091789795469644 -1.5066917788248742 0 0 0
9789 1 2 0 50.69491117161088 9.507790374110666 -2.3267593964671214 0 0 0
9787 1 2 0 51.13734238829139 11.90408880199534 -1.6849540308043278 0 0 0
6941 1 1 0 51.85787704507039 10.434515434097383 -1.5704355087866158 0 0 0
13546 1 2 0 52.061710853417196 9.929379633557012 -5.684560137077047e-06 0 0 0
6940 1 1 0 51.1578004197799 13.539457576586525 -1.5722408269465604 0 0 0
9790 1 2 0 53.35728690170354 10.310899220527325 -2.2865033174553524 0 0 0
6948 1 1 0 54.9018010631898 10.388792390350897 -1.6485009537061555 0 0 0
9800 1 2 0 55.906090397382805 9.15301446459291 -2.1425128444046186 0 0 0
9801 1 2 0 55.61721210036932 11.805340625065208 -2.1890328367686682 0 0 0
6952 1 1 0 57.14451415822529 12.221282373699331 -1.6441594360850975 0 0 0
13553 1 2 0 54.793068423175 10.399006706695658 -2.5541879262381387e-06 0 0 0
9807 1 2 0 57.713527992731265 13.69898544473395 -2.1539050054980806 0 0 0
9810 1 2 0 60.3549330932274 9.5569978215548 -2.2577935972517755 0 0 0
6955 1 1 0 61.00022372406776 8.156284149487583 -1.6491136547565293 0 1 0
9813 1 2 0 62.56716521077476 8.077710029322251 -2.199362892471784 0 1 0
9808 1 2 0 58.206539961430146 11.070182249802068 -2.1749395644448684 0 0 0
6954 1 1 0 59.77537051085887 10.97673586969745 -1.6542245125399502 0 0 0
9811 1 2 0 60.53706948140033 12.32799166797714 -2.2762529961726807 0 0 0
9816 1 2 0 62.99213069861932 11.805110347956534 -1.654261773036798 0 0 0
6957 1 1 0 61.87116030492976 13.006344121907333 -1.558253534209358 0 0 0
6961 1 1 0 64.09604403453442 8.470123182934245 -1.6540871055931796 0 1 0
9820 1 2 0 64.68115937758759 9.928204328990846 -2.246809113669716 0 0 0
6960 1 1 0 64.59578125665662 11.44474512152337 -1.5552506204425964 0 0 0
9821 1 2 0 65.42090192369454 12.704845497896992 -2.2683522253266144 0 0 0
9824 1 2 0 67.91756440318171 13.302061203701713 -2.175505711323025 0 0 0
9828 1 2 0 69.30236701391269 8.383164066979601 -2.1728568905134313 0 0 0
6965 1 1 0 70.11155370653665 9.798898345968848 -1.5909228977900505 0 0 0
9829 1 2 0 71.64529262439169 9.18663629276007 -1.8271643606725312 0 0 0
6972 1 1 0 73.27132954591636 9.420265384007129 -1.600777900605522 0 0 0
9841 1 2 0 74.05261134859009 8.010350185802887 -2.143313557134245 0 0 0
9826 1 2 0 69.93137295588863 11.460604188231834 -2.1279160959815995 0 0 0
9838 1 2 0 73.36382701610371 10.978830408120091 -2.289295638131649 0 0 0
6971 1 1 0 73.44391430693632 12.445942481185428 -1.5037795886204304 0 0 0
6964 1 1 0 69.47297710261445 13.093816435089337 -1.637088447384421 0 0 0
6976 1 1 0 77.142922665005 9.150604665772388 -1.6077917388690754 0 0 0
9848 1 2 0 78.49382987615166 9.79964800038067 -2.2762939860280076 0 0 0
9840 1 2 0 75.05457930017883 12.788529955329034 -1.3502024636085377 0 0 0
6975 1 1 0 76.32990670425654 11.804833420124682 -1.4899164623628445 0 0 0
9845 1 2 0 75.93997124419498 10.267247101968275 -2.004488160917172 0 0 0
9856 1 2 0 79.92893764622264 12.247352282288018 -2.048581461023719 0 0 0
6984 1 1 0 79.77502888642712 10.637777901185295 -1.6388660633160126 0 0 0
9846 1 2 0 77.39658700363243 12.671640126977593 -2.379782803134731 0 0 0
13589 1 2 0 79.8127823376318 10.492801649771522 -3.00448959278922e-06 0 0 0
6981 1 1 0 78.7387987372604 13.326903615542053 -1.6407769345017655 0 0 0
9860 1 2 0 81.00759887906099 9.85847432105262 -2.335835757473329 0 0 0
6986 1 1 0 82.48264794403698 9.590052829279232 -1.6544983755110412 0 0 0
9864 1 2 0 82.59468434179269 8.021511770512852 -2.2435291187600526 0 0 0
9868 1 2 0 85.13442192940533 8.862789461271928 -2.1407317095296294 0 0 0
6989 1 1 0 86.05717054915768 10.181624294822683 -1.6448875056530359 0 0 0
9861 1 2 0 83.19207501319836 11.047362818359112 -2.122883739749489 0 0 0
6985 1 1 0 84.15912854027397 12.327270904886113 -1.640315132605386 0 0 0
9863 1 2 0 85.63912078405926 11.711902810128532 -2.1796388271789464 0 0 0
13591 1 2 0 82.63288290182705 9.521446198342916 -1.7958361543419913e-06 0 0 0
13594 1 2 0 86.07037390969835 10.291100914294855 3.050512087828035e-07 0 0 0
13590 1 2 0 84.09062754018558 12.476905975435628 -8.0145391561308e-08 0 0 0
9869 1 2 0 87.52873108380551 9.667007083296673 -2.2027142509444584 0 0 0
6993 1 1 0 88.97335029681439 10.234653764401338 -1.6443344646281515 0 0 0
9876 1 2 0 90.20088687410677 9.283450776113277 -2.222962636337693 0 0 0
9873 1 2 0 88.95269960596296 11.783478433773938 -2.2052556938098973 0 0 0
6992 1 1 0 89.86244256933263 13.03698571878738 -1.643977750602511 0 0 0
9875 1 2 0 91.36268612055181 12.731721767906992 -2.273658935069712 0 0 0
13598 1 2 0 89.07942840775091 10.235523030263497 -4.3243418207976e-07 0 0 0
13597 1 2 0 89.90349480632027 13.114558509791392 -3.47759137100625e-07 0 0 0
9882 1 2 0 94.40353577815375 8.008547755151666 -2.151240768936951 0 0 0
6996 1 1 0 94.22499637120518 9.55800223570979 -1.643815340616139 0 0 0
9880 1 2 0 95.56045566420475 10.281582962233006 -2.2750888162087253 0 0 0
6997 1 1 0 97.08165276655562 10.19205196906188 -1.6484845091909939 0 0 0
6998 1 1 0 92.63050608504896 11.894758891957979 -1.6516839103698229 0 0 0
9881 1 2 0 92.8208821157775 10.3079296013623 -2.1432641514500865 0 0 0
9885 1 2 0 93.93431745466887 12.648103408443463 -2.3282091594594205 0 0 0
13603 1 2 0 92.53641389635078 11.953840174961002 -2.1375703893690902e-07 0 0 0
9884 1 2 0 97.95200029255926 8.935331002810045 -2.2321926964842866 0 0 0
7002 1 1 0 99.33745789214616 8.23730129504883 -1.6483921885150359 0 0 0
9355 1 2 0 100.68754045031939 9.092963416897739 -2.1917854972615225 0 0 0
6663 1 1 0 101.42696415963768 10.506369957154622 -1.6502350683176978 0 0 0
9883 1 2 0 97.79899112849802 11.540308089163242 -2.2475331191856416 0 0 0
9353 1 2 0 100.60884376753532 11.810881147443816 -2.2864013510780055 0 0 0
9347 1 2 0 102.96128528795367 10.83650323114857 -2.191981693880266 0 0 0
6999 1 1 0 97.57969767792834 13.047454138095224 -1.6365770767373449 0 0 0
6662 1 1 0 100.3829186881023 13.303878642151016 -1.6318549355128804 0 0 0
13268 1 2 0 101.42255505254334 10.428370887883778 1.2652233540960754e-08 0 0 0
13607 1 2 0 99.42316736436442 8.213313252079004 -1.2501747333739579e-06 0 0 0
13604 1 2 0 97.50219850256484 12.96156564480682 2.4550005454008634e-08 0 0 0
6762 1 1 0 9.535956043361365 14.563932035459457 -1.575918624496039 0 0 0
9518 1 2 0 11.037620758178521 13.92066082457463 -1.712689544991718 0 0 0
9517 1 2 0 9.697221360428866 16.016765400668806 -2.330015391655097 0 0 0
6764 1 1 0 10.473903161315278 17.295128789748173 -1.6374809068275529 0 0 0
6763 1 1 0 8.038595105333297 18.750665751024613 -1.650042275223663 0 0 0
9508 1 2 0 7.324634884943018 17.397357090123 -2.333110063072888 1 0 0
9519 1 2 0 9.642875702760904 18.663709493771368 -2.055995306712557 0 0 0
9521 1 2 0 11.98301024284368 17.43588812216279 -2.267770625060485 0 0 0
13369 1 2 0 10.611215042339149 17.09953942877262 -2.0576222420954687e-06 0 0 0
13367 1 2 0 9.086149528555872 14.753911874653562 -1.4922787733727573e-07 0 0 0
6897 1 1 0 14.88822370278095 13.721080822568684 -1.6541282731425164 0 0 0
9716 1 2 0 15.256178669378412 15.22164407252569 -2.2408588335484336 0 0 0
6898 1 1 0 15.61742192735834 16.72354440930724 -1.648815699804171 0 0 0
9608 1 2 0 14.547332137168336 17.822302922185845 -2.2381487664338224 0 0 0
9718 1 2 0 17.01856506860422 17.297169557561745 -2.278289410657237 0 0 0
6823 1 1 0 13.14677382825841 18.427063442265972 -1.6519630374221095 0 0 0
13502 1 2 0 14.88018325726411 13.766523579079136 -1.1444265712624654e-05 0 0 0
13503 1 2 0 15.651336736214999 16.67015103537293 -1.745829590790425e-05 0 0 0
13428 1 2 0 13.16156345251402 18.45344468964406 -4.027549542065695e-06 0 0 0
13509 1 2 0 18.450821643270505 17.782846517226048 -3.3698160824488175e-05 0 0 0
9724 1 2 0 20.8421880649904 14.26939174879409 -2.238171230888923 0 0 0
6903 1 1 0 20.79967647317943 15.82198435581719 -1.6473948763135975 0 0 0
9726 1 2 0 19.449224956362947 16.56762170796108 -2.208848328858218 0 0 0
9727 1 2 0 22.014722998877836 16.767149241392374 -2.2274906752907957 0 0 0
6912 1 1 0 23.524736113989363 17.11100597647397 -1.643608341726763 0 0 0
6904 1 1 0 18.4602514072394 17.761159425458015 -1.648560741304664 0 0 0
9741 1 2 0 23.767859795677687 18.74593498417616 -2.1321333174360704 0 0 0
13508 1 2 0 20.861302592288563 15.772825222685878 -4.193833350626423e-05 0 0 0
13517 1 2 0 23.689092468624484 17.140127654500972 -5.6056239318953814e-05 0 0 0
9728 1 2 0 18.818634331863986 19.280737412431257 -2.2160864093313286 0 0 0
6910 1 1 0 25.23231946615956 14.331748026500188 -1.6435648274520436 0 0 0
9739 1 2 0 26.720043375537717 14.831722300042463 -2.1893454064538944 0 0 0
9742 1 2 0 29.204760942482523 14.334261337872865 -2.2165214562291 0 0 0
9738 1 2 0 24.337089533204992 15.69358417701949 -2.1359146870193024 0 0 0
6914 1 1 0 28.139431104858126 15.494188941391219 -1.6477156266676802 0 0 0
9745 1 2 0 28.38703412783171 17.092857594635014 -2.1581035984912584 0 0 0
13515 1 2 0 25.118097652214537 14.23807257113892 -4.933176249640373e-05 0 0 0
13519 1 2 0 28.201037197012013 15.537533953412558 -4.5049862214162983e-05 0 0 0
6920 1 1 0 29.481418310976743 18.296870817829184 -1.6461500052932245 0 0 0
13525 1 2 0 29.46823399162489 18.400313632092978 -4.9370117636158474e-05 0 0 0
6918 1 1 0 34.574417254142844 14.888688154900978 -1.6425929634186933 0 0 0
6919 1 1 0 32.467685007974026 17.23622558810173 -1.6502851106401613 0 0 0
9751 1 2 0 33.433794297003146 15.972244130562816 -2.203049748612877 0 0 0
9753 1 2 0 30.90107911000551 17.51948826828529 -2.1307289636873707 0 0 0
9754 1 2 0 33.213799773172624 18.509669115357568 -2.3970840970656693 0 0 0
13524 1 2 0 32.50853063421055 17.141342240369116 -1.7564385730806498e-05 0 0 0
9752 1 2 0 36.19617816421831 15.020596585100504 -2.1254888368005482 0 0 0
6925 1 1 0 37.420536983997295 13.928867887453025 -1.650748471507909 0 0 0
9762 1 2 0 38.90505374091628 14.455523260597595 -2.2318119233032343 0 0 0
6926 1 1 0 40.47103064445187 14.300911114510049 -1.6211409852582876 0 0 0
6928 1 1 0 39.69770596840421 18.61056230904658 -1.6479355714156536 0 0 0
9766 1 2 0 40.51721733500149 17.339751608085574 -2.247682423242331 0 0 0
9768 1 2 0 38.18367168945129 18.284058764339903 -2.2969077118938372 0 0 0
6929 1 1 0 36.73869694176867 18.096514582957933 -1.547384465846831 0 0 0
9770 1 2 0 35.672178469105084 19.2827251008977 -1.9322534335828248 0 0 0
9764 1 2 0 41.77174615248689 15.23582499444667 -2.1195361975189875 0 0 0
6927 1 1 0 41.958127515109815 16.802667057615654 -1.6364126559009788 0 0 0
9784 1 2 0 45.89125597635813 17.887015620511924 -2.2405892925505495 0 0 0
9767 1 2 0 43.27165846259478 17.56919288008568 -2.2605594168285084 0 0 0
6939 1 1 0 44.48276037537066 18.54096274608477 -1.6513492045328066 0 0 0
6937 1 1 0 48.065715973499564 14.212870678020582 -1.64960217684646 0 0 0
9783 1 2 0 49.649785827040674 13.979889118551936 -2.210083261374757 0 0 0
6938 1 1 0 47.29731326805131 17.24206369806352 -1.6507324187087824 0 0 0
9782 1 2 0 47.5402201025614 15.69364485429976 -2.1847003270502587 0 0 0
9797 1 2 0 51.080543234758125 17.159466222257972 -2.0550572819499346 0 0 0
9785 1 2 0 48.540174620049235 18.151221803939734 -2.2936697672271067 0 0 0
6946 1 1 0 50.02607410313346 18.40096282076416 -1.6212064276140108 0 0 0
9788 1 2 0 52.67616053835608 13.884596495048068 -2.2688405246155954 0 0 0
6945 1 1 0 53.991891912027505 14.604715249183796 -1.4880254878373966 0 0 0
9796 1 2 0 55.477170987495235 14.957595062829643 -2.1968869791369423 0 0 0
9795 1 2 0 53.393671098051634 16.088461041848383 -1.251211595310002 0 0 0
6947 1 1 0 52.61906081366621 17.458292325848618 -1.481212668718736 0 0 0
6953 1 1 0 57.072186819964884 15.15163126756024 -1.6433282834679392 0 0 0
9799 1 2 0 53.69715644739044 18.363070815152618 -2.3638390945934695 0 0 0
9815 1 2 0 62.43968182071863 14.401057219361816 -2.249581012449434 0 0 0
9809 1 2 0 58.1351451428818 16.34902115743082 -2.1987330728948073 0 0 0
9817 1 2 0 60.94200647976621 16.54133611410073 -2.1984697757515903 0 0 0
6959 1 1 0 59.50658081837465 17.19338491188615 -1.6477899191598264 0 0 0
6958 1 1 0 62.40327180298261 15.963155673197736 -1.6496570188433233 0 0 0
9819 1 2 0 59.62123536380305 18.77325491117245 -2.1833755860672386 0 0 0
6962 1 1 0 66.45044077104325 13.878072749111743 -1.6508489803584652 0 0 0
9818 1 2 0 63.767143973835324 16.77990989630217 -2.1890938257799073 0 0 0
6963 1 1 0 65.36751743041535 16.86173785606687 -1.6512889332418357 0 0 0
9823 1 2 0 66.12593581555583 15.442735027588201 -2.1831705726614863 0 0 0
9825 1 2 0 66.10558442272853 18.293274744872406 -2.180858777035692 0 0 0
9827 1 2 0 70.14066179739521 14.621233219376439 -2.1149558109205784 0 0 0
9839 1 2 0 73.02153659569854 13.869882598162935 -2.2800781798500305 0 0 0
6974 1 1 0 70.56115066751165 16.206058648145557 -1.5864471075163498 0 0 0
9842 1 2 0 72.18526827882664 16.33450638536105 -1.8703600623005805 0 0 0
6973 1 1 0 73.48476444776182 15.358131231045475 -1.6129100061762076 0 0 0
9843 1 2 0 74.74724310185557 16.257541047148965 -2.2368220156850764 0 0 0
9844 1 2 0 70.13357990075791 17.764673248279948 -2.1753583536721486 0 0 0
7058 1 1 0 70.04268883032164 19.393910295669777 -1.6479766025512526 0 0 0
13663 1 2 0 70.162428470279 19.368108473935706 -2.5569210695810126e-06 0 0 0
9855 1 2 0 78.89169164685269 14.808633397723202 -2.3126324219336705 0 0 0
9857 1 2 0 77.28648345353005 17.014270450467148 -2.220553883080818 0 0 0
6982 1 1 0 78.6694366983342 16.31274067150033 -1.650367675523145 0 0 0
9858 1 2 0 79.98012786625085 17.107901567540814 -2.2349651430676674 0 0 0
6983 1 1 0 75.78318940673908 17.439455302004383 -1.6512459852241583 0 0 0
9859 1 2 0 75.47745742337983 18.992422569540963 -2.193829729276167 0 0 0
9862 1 2 0 83.84898025944648 13.889997345162202 -2.212381588152429 0 0 0
6987 1 1 0 83.88574871017155 15.49914519272662 -1.650680629855493 0 0 0
9865 1 2 0 82.63096817204092 16.496633775640582 -2.1915145717238653 0 0 0
9866 1 2 0 85.30726054937331 16.20389583491223 -2.1790753847029833 0 0 0
6988 1 1 0 81.45048291119038 17.57067169152927 -1.6465435180287722 0 0 0
9867 1 2 0 81.46457200536278 19.156818438592403 -2.1791816949291016 0 0 0
9874 1 2 0 89.19685854702533 14.418287589723969 -2.2290150641446393 0 0 0
6995 1 1 0 86.49210634450128 17.254155393182597 -1.6481673365926326 0 0 0
9877 1 2 0 87.98412127322517 16.77430421537266 -2.2191470460131884 0 0 0
6994 1 1 0 89.32859982661206 15.972360431534486 -1.656679468881081 0 0 0
9878 1 2 0 90.80034536000966 16.471481348348313 -2.278403262646742 0 0 0
13599 1 2 0 89.33933522914933 16.05566199893946 2.64225512598788e-07 0 0 0
9879 1 2 0 86.19694001509033 18.793825233604366 -2.2128410709795245 0 0 0
9916 1 2 0 91.08610676767363 18.9120479924687 -1.602211589939784 0 0 0
7000 1 1 0 94.80503911115485 13.830804402971978 -1.6114980598321007 0 0 0
9886 1 2 0 96.30594821736422 13.840917671422432 -2.299178925434051 0 0 0
9887 1 2 0 94.08850048862925 15.272620936826852 -1.8873061888243254 0 0 0
7020 1 1 0 94.7534132803613 16.765672452943367 -1.5988815615393797 0 0 0
9613 1 2 0 96.2903998890317 16.748957520223676 -2.27636779048563 0 0 0
9915 1 2 0 93.46422525800696 17.664821518031737 -2.20932597327368 0 0 0
7021 1 1 0 91.91400442189122 17.480200993473623 -1.5539100332384543 0 0 0
13626 1 2 0 92.14173058195884 16.933673637812397 -9.114771994371765e-07 0 0 0
9354 1 2 0 98.90144221960044 13.87981367887895 -2.1116025536609713 0 0 0
9351 1 2 0 101.30574954214963 14.582658236073861 -2.128686983533606 0 0 0
6826 1 1 0 97.78691958472851 16.95423453666357 -1.513771504342958 0 0 0
9352 1 2 0 99.22776660933 16.513409567301782 -2.2582464965246754 0 0 0
6661 1 1 0 100.7326713532817 16.09923144126447 -1.6521026040039999 0 0 0
9349 1 2 0 102.01523122779341 17.015381583901934 -2.189012365529585 0 0 0
9612 1 2 0 97.9438820484306 18.572577011975806 -1.4088325066272531 0 0 0
13266 1 2 0 100.6266657342812 16.20156874792688 1.1113412420002604e-07 0 0 0
9520 1 2 0 7.6613348023519405 20.300912367497137 -2.248203465057654 0 0 0
6804 1 1 0 8.5012658070749 21.59204093545961 -1.5625930525603207 0 0 0
9580 1 2 0 9.957165669206772 21.776053805506507 -2.315177079246325 0 0 0
9605 1 2 0 12.394348607343336 22.647541387745772 -2.2165333997807695 0 0 0
9579 1 2 0 7.864595016055265 23.121577915996102 -1.63929865749321 0 0 0
6822 1 1 0 10.8779711056726 22.989990409992863 -1.657541471296182 0 0 0
9606 1 2 0 10.326902352675296 24.468311967456852 -2.165164086849339 0 0 0
9607 1 2 0 12.908471965836739 19.940686257361318 -2.2712985819534026 0 0 0
6824 1 1 0 13.324474656764862 21.403166589336735 -1.6428166742333021 0 0 0
9609 1 2 0 14.83914560677592 21.77235007840927 -2.159764697488744 0 0 0
7031 1 1 0 15.654248092052274 23.10909678770299 -1.6444785644201243 0 0 0
9930 1 2 0 17.14065681881769 22.791625469244824 -2.2476710741512553 0 0 0
13636 1 2 0 15.670661760905952 23.232661908065804 -1.1353469693104661e-05 0 0 0
13429 1 2 0 13.252063942150137 21.322249546434282 -3.558064630010798e-06 0 0 0
9836 1 2 0 15.043997396596339 24.52125687923856 -2.260078516149658 0 0 0
13635 1 2 0 18.709215461659873 23.17908498959356 -2.9828197841506222e-05 0 0 0
7029 1 1 0 19.901646460605537 20.40559385098796 -1.6440322488528585 0 0 0
9928 1 2 0 19.6229497991602 21.937268185874974 -2.235718985178577 0 0 0
9929 1 2 0 21.38601661388707 19.871830947224332 -2.1323087626494805 0 0 0
7032 1 1 0 22.9426313169317 20.18178298157124 -1.6389255489423442 0 0 0
9932 1 2 0 23.16716830577723 21.789287694249033 -2.1886716881634753 0 0 0
7030 1 1 0 18.63140853516928 23.134524207779794 -1.6487157498925866 0 0 0
7036 1 1 0 23.577948077044294 23.333704680252584 -1.5622533540064523 0 0 0
13634 1 2 0 19.82035637411226 20.467142327941936 -3.6768361181089896e-05 0 0 0
13641 1 2 0 23.009634590755752 23.347244120945366 -6.480301689632495e-05 0 0 0
13637 1 2 0 23.171406394007967 20.252993095496194 -5.6750628406099784e-05 0 0 0
9931 1 2 0 18.93523350119126 24.634482384405853 -2.2623818778748546 0 0 0
9939 1 2 0 23.139775030416395 24.898998466034804 -2.148660306863184 0 0 0
9755 1 2 0 29.239422794299113 19.92775470558737 -2.178816493072327 0 0 0
9936 1 2 0 27.653484087397363 22.38964437333554 -2.164466196028755 0 0 0
7035 1 1 0 29.054389097552125 21.575729038107493 -1.6476673209074177 0 0 0
9938 1 2 0 25.210577428872185 23.167567071066856 -1.7057992759393843 0 0 0
7037 1 1 0 26.756447207803763 23.691078918375876 -1.5684273107815079 0 0 0
13640 1 2 0 29.078805710146295 21.422184669395826 -5.6696067401975264e-05 0 0 0
13642 1 2 0 27.277917527274575 23.905045976428656 -6.506922989825509e-05 0 0 0
9940 1 2 0 26.71458794139864 25.228743025576943 -2.2743928620113882 0 0 0
7039 1 1 0 34.05628712996065 19.66425383699943 -1.6243837178555969 0 0 0
9944 1 2 0 33.517533936295315 21.126956883874698 -2.1701009982115824 0 0 0
9937 1 2 0 30.22285102550696 22.67985980448124 -2.180505678567048 0 0 0
7074 1 1 0 34.525646357872226 22.36108603453539 -1.6508784945448294 0 0 0
13678 1 2 0 30.502979672000215 24.089854152806183 -3.095933843939515e-05 0 0 0
9995 1 2 0 34.35721880275887 23.83826583285859 -2.2949284141263875 0 0 0
7073 1 1 0 30.591469960154857 24.245799053136174 -1.6430038776644624 0 0 0
9993 1 2 0 32.0265019104244 24.73916217211618 -2.2647973602448563 0 0 0
7075 1 1 0 33.51124522762233 25.122680049736964 -1.6221096559715167 0 0 0
9769 1 2 0 40.705862554795935 19.87127362019895 -2.0752156773873733 0 0 0
7040 1 1 0 37.38344201223093 22.104245158154384 -1.6380915883689418 0 0 0
9943 1 2 0 35.9362392231172 21.7613917896147 -2.286137106129814 0 0 0
9941 1 2 0 38.526409566081796 21.06058056359243 -2.214634895796048 0 0 0
7038 1 1 0 40.06682980834229 21.340023199752984 -1.6391585662810457 0 0 0
9945 1 2 0 37.902676076084056 23.548866810743572 -2.220684139711416 0 0 0
9942 1 2 0 40.769185405219844 22.659650204457474 -2.2955292963391183 0 0 0
7107 1 1 0 37.44915838239303 24.95041808855816 -1.484880072045658 0 0 0
9786 1 2 0 44.24298038563378 20.088893785783394 -2.2114801913926474 0 0 0
7043 1 1 0 44.47237043859327 21.64185615357262 -1.648091064197471 0 0 0
9950 1 2 0 45.90031171856022 22.190285942437043 -2.2804369529024644 0 0 0
7044 1 1 0 42.02130075797189 23.552138241189162 -1.6512500320365835 0 0 0
9949 1 2 0 43.35754144137198 22.730957959897477 -2.198201499085397 0 0 0
9951 1 2 0 41.903025450458216 25.078849063471033 -2.274615118748788 0 0 0
9798 1 2 0 50.79750929448375 19.727161665033915 -2.246128925119379 0 0 0
7045 1 1 0 51.8229439183596 20.882668334149272 -1.6267964266117858 0 0 0
9952 1 2 0 51.253429709846316 22.259894412791766 -2.3025248732622354 0 0 0
7046 1 1 0 47.11035027291782 23.100863431504546 -1.6359754969007285 0 0 0
9954 1 2 0 48.509475323632174 22.296178896386042 -2.057276550008716 0 0 0
7047 1 1 0 49.94974887984727 22.998871568237167 -1.6395136066118052 0 0 0
13652 1 2 0 50.04773041477038 23.134553617485558 -5.702633871886697e-06 0 0 0
9955 1 2 0 47.171714036782056 24.636952539324742 -2.257181694263397 0 0 0
9956 1 2 0 50.06160077344174 24.48212049382155 -2.30070025386597 0 0 0
7048 1 1 0 54.461058289658446 19.648142149165793 -1.6351070464422017 0 0 0
9953 1 2 0 53.43069366981141 20.900110098629998 -2.0188368949523943 0 0 0
9957 1 2 0 55.99529058934285 19.84064552755439 -2.232089287628508 0 0 0
7052 1 1 0 56.90779628599724 21.120593564888093 -1.6536535166968716 0 0 0
7119 1 1 0 55.791101292351925 23.9150813427118 -1.6467951566192778 0 0 0
9963 1 2 0 56.09078156930432 22.418374751829614 -2.2579106359667755 0 0 0
13657 1 2 0 56.964195008182564 21.13906338837529 -1.1278038001775342e-05 0 0 0
13724 1 2 0 55.84905793814473 23.941470597440848 -2.6684144816239852e-05 0 0 0
10063 1 2 0 54.22482231898835 24.291707558852483 -2.1230296907880564 0 0 0
10064 1 2 0 57.07714549096815 24.82101982492332 -2.20566959794285 0 0 0
9961 1 2 0 58.458776584027724 21.11011342938606 -2.2249083822876825 0 0 0
7051 1 1 0 59.82409493854105 20.34644611156484 -1.6488925679811532 0 0 0
9962 1 2 0 61.16461767753397 21.2026204225098 -2.1979961475393446 0 0 0
7054 1 1 0 62.1315032210041 22.475488097660875 -1.6488390557381272 0 0 0
9967 1 2 0 61.49898532894875 23.923309475698282 -2.1892385408473594 0 0 0
13656 1 2 0 59.89344452188894 20.329437361378226 -5.416766513292245e-06 0 0 0
13659 1 2 0 62.12870107476639 22.43756299033266 -1.1190155457957235e-05 0 0 0
7053 1 1 0 66.8687291390119 19.727994728920024 -1.6462001414868552 0 0 0
9965 1 2 0 68.47771033473795 19.823833554046896 -2.129884653026474 0 0 0
9964 1 2 0 66.12644459812049 21.158434169807528 -2.1754352921459046 0 0 0
9966 1 2 0 63.715977896366965 22.36569599317416 -2.1867765960061374 0 0 0
7055 1 1 0 65.3034805266237 22.5423246861613 -1.649389505194612 0 0 0
9968 1 2 0 65.96879948056481 24.03341236654831 -2.1462579482862782 0 0 0
13660 1 2 0 65.3173540501101 22.55256378941695 -4.961911191479502e-06 0 0 0
13658 1 2 0 66.77499651993753 19.692352529273787 -1.8889659348931178e-06 0 0 0
9972 1 2 0 71.18678464570553 20.62532457664649 -2.1287242975352365 0 0 0
7060 1 1 0 72.41738833674891 21.770020553592484 -1.648263969484037 0 0 0
9973 1 2 0 73.92144333305666 21.206917316344136 -2.173720289123219 0 0 0
9975 1 2 0 72.38972097907214 23.442731201024987 -2.1122379278516776 0 0 0
13665 1 2 0 72.34118861334073 21.778694129496923 -3.2378385664305905e-06 0 0 0
7128 1 1 0 72.4658641199512 25.11276139111192 -1.6482705129847413 0 0 0
13733 1 2 0 72.53242586775369 25.13186981138627 -2.8403841021110607e-07 0 0 0
7059 1 1 0 75.39158219961489 20.578059469893326 -1.6482559520031583 0 0 0
9974 1 2 0 76.72887833800533 21.469578929155173 -2.1744095026553483 0 0 0
9977 1 2 0 79.49474618701987 21.318738213804107 -2.1877617168425947 0 0 0
7063 1 1 0 78.15733382620441 22.20948728902103 -1.6498898037726348 0 0 0
9979 1 2 0 78.24141102190319 23.819947551923335 -2.166084899748708 0 0 0
7062 1 1 0 80.9553230607924 20.6647980234572 -1.6462277721060254 0 0 0
9978 1 2 0 82.18424704993912 21.635549993162197 -2.1948739177862664 0 0 0
7065 1 1 0 83.6707731303727 22.12066991241491 -1.6480344085458418 0 0 0
9980 1 2 0 84.92452993531825 21.18534964067953 -2.2226588839975867 0 0 0
9982 1 2 0 83.82110625114282 23.666934297736365 -2.228428702793051 0 0 0
7136 1 1 0 83.56310625390121 25.194996634571226 -1.6483849971940696 0 0 0
13741 1 2 0 83.55205114355094 25.188225894632374 1.906463368757204e-06 0 0 0
7064 1 1 0 86.25634936468632 20.359224867519874 -1.6496092028292415 0 0 0
9981 1 2 0 87.65099801147055 21.07169097936008 -2.21325014038036 0 0 0
9984 1 2 0 90.38487942011929 21.370798242070368 -2.269446539310205 0 0 0
7092 1 1 0 88.94528381966478 21.9523740035341 -1.6528595594853197 0 0 0
10023 1 2 0 88.78798242674921 23.4964244444609 -2.223323769261936 0 0 0
7066 1 1 0 91.59037171213794 20.48272351298379 -1.555643399419848 0 0 0
13669 1 2 0 86.24790633036677 20.368081832741304 -2.8703718638643535e-08 0 0 0
7138 1 1 0 88.80743975214563 25.045438483297712 -1.6483927724073735 0 0 0