ITEM: TIMESTEP
1834
ITEM: NUMBER OF ATOMS
15708
ITEM: BOX BOUNDS pp pp pp
0.0000000000000000e+00 2.0500540018106329e+02
0.0000000000000000e+00 1.7837141013536376e+02
-1.0000000000000000e+02 1.0000000000000000e+02
ITEM: ATOMS id type element x y z v_uncoordination
1 1 Si 0.587571 1.29066 1.62602 0
2 1 Si 3.69704 0.483878 1.62992 0
3 1 Si 0.150616 4.51246 1.62142 0
4 1 Si 2.58207 6.65041 1.63107 0
5 1 Si 5.60987 5.77354 1.61697 0
6 1 Si 5.98737 2.63728 1.62597 0
7 1 Si 203.634 177.059 1.62996 0
8 1 Si 204.809 173.935 1.62967 0
9 1 Si 3.00059 173.235 1.63822 0
10 1 Si 4.73313 175.884 1.63122 0
11 1 Si 202.64 6.53979 1.63629 0
12 1 Si 199.598 5.51604 1.63483 0
13 1 Si 198.904 2.32083 1.63028 0
14 1 Si 200.475 177.78 1.62494 0
15 1 Si 121.534 36.6974 1.63034 0
16 1 Si 118.498 34.7566 1.62772 0
17 1 Si 125.056 36.5058 1.63442 0
18 1 Si 120.461 29.4042 1.63086 0
19 1 Si 117.711 31.4614 1.62024 0
20 1 Si 123.744 30.7118 1.62743 0
21 1 Si 126.116 33.3414 1.63854 0
22 1 Si 120.878 39.9103 1.62789 0
23 1 Si 115.336 35.9072 1.61713 0
24 1 Si 115.06 39.055 1.62767 0
25 1 Si 117.739 40.8107 1.63593 0
26 1 Si 127.494 39.0957 1.63004 0
27 1 Si 126.389 42.2295 1.62019 0
28 1 Si 123.166 42.2235 1.62552 0
29 1 Si 109.955 3.68396 1.60789 0
30 1 Si 112.645 5.3285 1.61793 0
31 1 Si 108.734 6.5815 1.61833 0
32 1 Si 111.419 8.28559 1.62161 0
33 1 Si 109.084 0.645852 1.63605 0
34 1 Si 115.499 3.97004 1.62683 0
35 1 Si 116.21 0.769424 1.61214 0
36 1 Si 111.387 176.715 1.60946 0
37 1 Si 114.646 176.29 1.6323 0
38 1 Si 105.676 7.2488 1.62833 0
39 1 Si 103.486 4.79515 1.60707 0
40 1 Si 103.176 1.51267 1.65844 0
41 1 Si 105.95 178.117 1.6179 0
42 1 Si 120.399 3.59687 1.62759 0
43 1 Si 118.081 5.92545 1.61524 0
44 1 Si 119.442 0.510716 1.62654 0
45 1 Si 123.587 4.03268 1.63303 0
46 1 Si 124.15 7.33305 1.64215 0
47 1 Si 118.46 9.23404 1.64294 0
48 1 Si 121.821 9.84715 1.63885 0
49 1 Si 125.636 1.29827 1.6268 0
50 1 Si 124.71 176.381 1.64972 0
51 1 Si 121.329 176.15 1.6215 0
52 1 Si 128.853 2.03403 1.6355 0
53 1 Si 129.511 5.3198 1.62273 0
54 1 Si 127.369 7.9532 1.63855 0
55 1 Si 131.121 177.992 1.61326 0
56 1 Si 135.251 4.02529 1.61038 0
57 1 Si 132.679 6.03372 1.65129 0
58 1 Si 136.537 1.04515 1.62964 0
59 1 Si 134.251 177.366 1.62801 0
60 1 Si 130.134 172.341 1.62664 0
61 1 Si 126.799 173.513 1.64279 0
62 1 Si 131.933 174.876 1.62885 0
63 1 Si 138.198 5.17377 1.6339 0
64 1 Si 138.575 8.31214 1.64563 0
65 1 Si 133.204 9.21275 1.64657 0
66 1 Si 136.14 10.367 1.6267 0
67 1 Si 140.578 3.02637 1.6254 0
68 1 Si 139.626 178.357 1.6145 0
69 1 Si 143.657 3.7949 1.64542 0
70 1 Si 143.999 7.03144 1.64436 0
71 1 Si 141.588 9.2971 1.63513 0
72 1 Si 145.941 1.39934 1.64045 0
73 1 Si 145.111 176.545 1.63576 0
74 1 Si 141.814 175.857 1.62796 0
75 1 Si 147.1 7.8579 1.64175 0
76 1 Si 149.56 5.6174 1.64396 0
77 1 Si 149.086 2.32261 1.65147 0
78 1 Si 160.682 3.54332 1.64054 0
79 1 Si 158.167 5.83725 1.64651 0
80 1 Si 163.784 4.78284 1.64183 0
81 1 Si 163.868 8.27689 1.65608 0
82 1 Si 158.413 9.27518 1.64457 0
83 1 Si 161.389 10.7257 1.65304 0
84 1 Si 160.175 0.161211 1.62981 0
85 1 Si 155.13 4.48786 1.64431 0
86 1 Si 154.635 1.12535 1.64788 0
87 1 Si 157.1 177.197 1.64859 0
88 1 Si 166.42 2.4576 1.63771 0
89 1 Si 165.74 177.319 1.60889 0
90 1 Si 162.607 176.289 1.62735 0
91 1 Si 169.487 4.00384 1.61967 0
92 1 Si 169.373 7.30767 1.63828 0
93 1 Si 166.894 9.54245 1.65085 0
94 1 Si 172.859 3.39782 1.62851 0
95 1 Si 174.602 0.55577 1.63087 0
96 1 Si 172.506 176.026 1.60401 0
97 1 Si 170.035 173.509 1.62772 0
98 1 Si 166.814 174.02 1.62719 0
99 1 Si 174.712 6.17396 1.6167 0
100 1 Si 172.391 8.41702 1.63079 0
101 1 Si 178.269 0.875855 1.61799 0
102 1 Si 181.055 3.07076 1.62603 0
103 1 Si 180.855 6.30514 1.63003 0
104 1 Si 177.809 7.37511 1.64063 0
105 1 Si 179.637 176.255 1.62392 0
106 1 Si 174.539 173.623 1.61854 0
107 1 Si 177.666 173.775 1.61967 0
108 1 Si 184.418 2.56741 1.63097 0
109 1 Si 187.055 4.80037 1.64905 0
110 1 Si 186.617 8.24426 1.63912 0
111 1 Si 183.294 8.61024 1.63536 0
112 1 Si 185.039 177.699 1.64204 0
113 1 Si 182.799 175.347 1.63072 0
114 1 Si 190.087 3.26588 1.63317 0
115 1 Si 193.243 4.17772 1.63416 0
116 1 Si 194.012 7.30192 1.62434 0
117 1 Si 192.163 9.99738 1.62706 0
118 1 Si 189.016 10.9897 1.63606 0
119 1 Si 190.507 0.0162025 1.61975 0
120 1 Si 188.005 176.474 1.63514 0
121 1 Si 195.717 1.96545 1.60956 0
122 1 Si 192.821 176.071 1.63125 0
123 1 Si 195.792 177.068 1.6224 0
124 1 Si 203.585 9.64048 1.59902 0
125 1 Si 1.76854 9.71682 1.60982 0
126 1 Si 197.246 7.78964 1.62567 0
127 1 Si 104.772 10.397 1.61284 0
128 1 Si 101.613 9.61031 1.63072 0
129 1 Si 100.78 6.50038 1.61521 0
130 1 Si 112.404 11.4168 1.63654 0
131 1 Si 115.914 11.6257 1.64773 0
132 1 Si 128.111 11.2298 1.63073 0
133 1 Si 131.266 11.773 1.62559 0
134 1 Si 147.283 11.1016 1.64214 0
135 1 Si 141.602 12.5719 1.62879 0
136 1 Si 144.755 13.2401 1.6373 0
137 1 Si 152.64 6.723 1.64997 0
138 1 Si 152.938 10.0314 1.64394 0
139 1 Si 150.356 12.0617 1.64103 0
140 1 Si 151.496 178.367 1.64757 0
141 1 Si 155.867 11.5011 1.63885 0
142 1 Si 173.033 11.5577 1.63555 0
143 1 Si 167.238 12.9047 1.64509 0
144 1 Si 170.482 13.643 1.63569 0
145 1 Si 178.75 10.4827 1.63238 0
146 1 Si 176.202 12.3799 1.63791 0
147 1 Si 181.903 11.5466 1.63067 0
148 1 Si 197.472 10.9746 1.61965 0
149 1 Si 194.517 12.1697 1.60944 0
150 1 Si 202.723 12.7144 1.62447 0
151 1 Si 199.573 13.4624 1.63358 0
152 1 Si 3.33471 12.534 1.63645 0
153 1 Si 6.78063 12.6624 1.61635 0
154 1 Si 8.53839 7.05628 1.62926 0
155 1 Si 9.1668 10.1955 1.61951 0
156 1 Si 106.051 13.5253 1.64601 0
157 1 Si 109.934 13.9555 1.61813 0
158 1 Si 122.847 13.068 1.63032 0
159 1 Si 126.117 13.9246 1.62904 0
160 1 Si 136.068 13.6125 1.62945 0
161 1 Si 132.902 14.6031 1.621 0
162 1 Si 139.098 14.8763 1.62618 0
163 1 Si 161.492 14.2841 1.64383 0
164 1 Si 155.838 14.9105 1.6334 0
165 1 Si 158.624 16.6514 1.61997 0
166 1 Si 164.739 15.3454 1.63039 0
167 1 Si 189.296 14.6846 1.63425 0
168 1 Si 183.146 14.7803 1.63334 0
169 1 Si 186.424 16.4387 1.648 0
170 1 Si 194.911 15.3441 1.6238 0
171 1 Si 192.187 17.0193 1.63126 0
172 1 Si 0.53107 14.4377 1.62055 0
173 1 Si 103.05 15.6881 1.62556 0
174 1 Si 99.706 14.6691 1.60806 0
175 1 Si 99.0401 11.498 1.6231 0
176 1 Si 117.192 14.6828 1.6168 0
177 1 Si 111.679 17.0075 1.62934 0
178 1 Si 115.341 17.4356 1.62924 0
179 1 Si 120.46 15.3565 1.61839 0
180 1 Si 127.404 17.1466 1.62301 0
181 1 Si 131.119 17.4724 1.63831 0
182 1 Si 150.478 15.258 1.63788 0
183 1 Si 144.966 16.4218 1.6267 0
184 1 Si 147.989 17.2403 1.6248 0
185 1 Si 153.164 16.9379 1.6189 0
186 1 Si 177.258 15.3663 1.62345 0
187 1 Si 171.387 16.7286 1.6338 0
188 1 Si 174.646 17.2454 1.6138 0
189 1 Si 180.311 16.5822 1.6203 0
190 1 Si 198.02 16.3608 1.61094 0
191 1 Si 0.0749276 17.6867 1.63545 0
192 1 Si 199.066 19.5338 1.62701 0
193 1 Si 202.416 19.8404 1.61578 0
194 1 Si 3.01994 18.9431 1.59953 0
195 1 Si 6.24329 18.4594 1.6309 0
196 1 Si 8.0914 15.7506 1.62648 0
197 1 Si 109.64 19.7349 1.63106 0
198 1 Si 102.921 19.1172 1.62461 0
199 1 Si 106.143 20.4647 1.62791 0
200 1 Si 121.168 18.5982 1.61437 0
201 1 Si 124.665 19.4795 1.63087 0
202 1 Si 139.483 18.2574 1.63974 0
203 1 Si 133.288 20.2103 1.62367 0
204 1 Si 136.778 20.5346 1.6188 0
205 1 Si 142.83 18.8631 1.6111 0
206 1 Si 165.506 18.7422 1.63216 0
207 1 Si 157.34 20.2279 1.63769 0
208 1 Si 163.221 21.6344 1.62168 0
209 1 Si 159.847 22.3797 1.62185 0
210 1 Si 168.947 18.9965 1.61648 0
211 1 Si 187.337 19.8764 1.6339 0
212 1 Si 179.666 19.7938 1.63073 0
213 1 Si 185.034 22.2131 1.63176 0
214 1 Si 181.756 22.3734 1.63511 0
215 1 Si 193.267 20.447 1.62074 0
216 1 Si 190.22 21.8195 1.62729 0
217 1 Si 1.5958 21.8551 1.6197 0
218 1 Si 4.23193 23.4401 1.62414 0
219 1 Si 6.84472 21.5926 1.62671 0
220 1 Si 117.93 19.9307 1.63576 0
221 1 Si 111.532 22.4724 1.61314 0
222 1 Si 117.499 23.4303 1.64858 0
223 1 Si 114.254 24.4118 1.63364 0
224 1 Si 125.535 22.7549 1.63727 0
225 1 Si 131.88 23.2424 1.61702 0
226 1 Si 128.64 24.1505 1.61804 0
227 1 Si 148.424 20.3695 1.59562 0
228 1 Si 145.164 21.2677 1.63382 0
229 1 Si 151.787 20.0165 1.63455 0
230 1 Si 2.84122 41.2691 1.62663 0
231 1 Si 3.86644 44.3298 1.63228 0
232 1 Si 3.91275 38.2553 1.6157 0
233 1 Si 7.31941 38.2087 1.64598 0
234 1 Si 7.01874 44.5597 1.6266 0
235 1 Si 8.71562 41.4843 1.63695 0
236 1 Si 204.768 41.0858 1.61686 0
237 1 Si 202.984 43.593 1.63045 0
238 1 Si 203.914 46.5339 1.60847 0
239 1 Si 2.03762 47.0321 1.62153 0
240 1 Si 0.912716 36.6009 1.63686 0
241 1 Si 203.138 38.3882 1.59492 0
242 1 Si 154.135 22.2731 1.6262 0
243 1 Si 176.39 19.9427 1.60684 0
244 1 Si 170.833 21.6118 1.63736 0
245 1 Si 174.06 22.0773 1.63134 0
246 1 Si 196.712 22.0672 1.61695 0
247 1 Si 96.4164 15.6521 1.62419 0
248 1 Si 96.2662 19.0456 1.62976 0
249 1 Si 99.6154 20.8642 1.63313 0
250 1 Si 109.083 24.4235 1.62336 0
251 1 Si 106.025 23.7162 1.60995 0
252 1 Si 123.3 25.173 1.61112 0
253 1 Si 120.095 25.9061 1.62716 0
254 1 Si 137.438 23.8481 1.61958 0
255 1 Si 134.398 25.4562 1.62266 0
256 1 Si 144.157 24.3623 1.62622 0
257 1 Si 140.73 24.9684 1.63071 0
258 1 Si 164.148 24.8608 1.61165 0
259 1 Si 158.922 25.6602 1.6188 0
260 1 Si 161.832 27.2039 1.61247 0
261 1 Si 169.75 24.5462 1.61781 0
262 1 Si 167.092 26.2376 1.62821 0
263 1 Si 186.428 25.1376 1.60199 0
264 1 Si 180.785 25.5464 1.6105 0
265 1 Si 182.313 28.4586 1.62041 0
266 1 Si 185.504 28.2469 1.62798 0
267 1 Si 189.637 25.1165 1.61014 0
268 1 Si 203.541 22.8989 1.60696 0
269 1 Si 4.32217 26.5793 1.62282 0
270 1 Si 7.54643 26.5847 1.62609 0
271 1 Si 9.16652 23.7204 1.64198 0
272 1 Si 125.13 27.8358 1.61768 0
273 1 Si 128.274 27.4125 1.62232 0
274 1 Si 146.618 26.7769 1.6204 0
275 1 Si 141.144 28.0957 1.62744 0
276 1 Si 144.246 28.9572 1.62042 0
277 1 Si 153.057 25.8246 1.61113 0
278 1 Si 149.946 27.938 1.62891 0
279 1 Si 156.043 27.4834 1.62591 0
280 1 Si 175.079 25.0736 1.63197 0
281 1 Si 172.279 26.4214 1.60334 0
282 1 Si 177.808 26.6528 1.64798 0
283 1 Si 198.31 25.4655 1.62259 0
284 1 Si 190.604 28.3358 1.6249 0
285 1 Si 193.713 29.6478 1.61493 0
286 1 Si 196.951 28.6691 1.62153 0
287 1 Si 201.805 25.7509 1.62729 0
288 1 Si 109.933 27.4101 1.61961 0
289 1 Si 107.131 28.8739 1.62296 0
290 1 Si 104.709 26.6772 1.63396 0
291 1 Si 113.136 27.5576 1.62672 0
292 1 Si 114.188 30.6488 1.62993 0
293 1 Si 133.644 28.7421 1.62889 0
294 1 Si 130.488 29.8427 1.61886 0
295 1 Si 139.079 30.5082 1.61809 0
296 1 Si 135.901 31.1265 1.62074 0
297 1 Si 162.606 30.4909 1.63897 0
298 1 Si 156.356 30.8741 1.64077 0
299 1 Si 159.628 32.1502 1.63876 0
300 1 Si 168.149 29.352 1.62225 0
301 1 Si 165.95 31.7639 1.65087 0
302 1 Si 171.424 29.4154 1.61636 0
303 1 Si 177.428 29.815 1.62756 0
304 1 Si 180.387 31.1038 1.63279 0
305 1 Si 187.965 30.4324 1.61367 0
306 1 Si 10.6939 4.65056 1.61863 0
307 1 Si 9.05842 1.95478 1.63734 0
308 1 Si 13.8736 4.32048 1.63871 0
309 1 Si 14.6552 7.63707 1.62152 0
310 1 Si 12.516 10.2745 1.61699 0
311 1 Si 14.94 1.00105 1.64023 0
312 1 Si 13.2058 176.507 1.6188 0
313 1 Si 10.1144 177.364 1.63318 0
314 1 Si 19.8759 5.85774 1.63225 0
315 1 Si 17.8025 8.29306 1.6474 0
316 1 Si 22.9132 6.76354 1.63172 0
317 1 Si 24.0524 9.67237 1.66464 0
318 1 Si 19.1073 11.2157 1.59292 0
319 1 Si 22.1276 12.0401 1.59086 0
320 1 Si 19.8087 2.68583 1.61426 0
321 1 Si 18.0511 0.0651227 1.62722 0
322 1 Si 2.06736 28.8823 1.62622 0
323 1 Si 203.742 28.5442 1.61849 0
324 1 Si 24.3842 4.03874 1.58529 0
325 1 Si 22.6845 1.43484 1.60373 0
326 1 Si 40.4651 4.2417 1.63309 0
327 1 Si 38.7173 1.16104 1.62779 0
328 1 Si 34.925 5.41495 1.59755 0
329 1 Si 35.9431 2.5109 1.65237 0
330 1 Si 34.8189 8.51783 1.66047 0
331 1 Si 40.0603 7.71988 1.61306 0
332 1 Si 37.5914 9.94706 1.6077 0
333 1 Si 43.5325 3.23435 1.63151 0
334 1 Si 43.4767 178.265 1.61968 0
335 1 Si 40.2327 173.619 1.62298 0
336 1 Si 43.0294 174.983 1.63635 0
337 1 Si 38.1109 176.089 1.62558 0
338 1 Si 31.9254 4.72634 1.59108 0
339 1 Si 30.6465 1.94103 1.57587 0
340 1 Si 33.488 0.676721 1.59997 0
341 1 Si 49.3378 4.47723 1.6376 0
342 1 Si 46.1172 5.47702 1.62821 0
343 1 Si 48.7984 1.42312 1.63828 0
344 1 Si 46.4892 177.736 1.6209 0
345 1 Si 129.583 33.0912 1.6275 0
346 1 Si 52.7495 4.93222 1.63682 0
347 1 Si 53.909 7.99097 1.63091 0
348 1 Si 45.4587 8.7393 1.62951 0
349 1 Si 51.2043 9.9998 1.61118 0
350 1 Si 47.9388 10.8338 1.62639 0
351 1 Si 51.0981 177.822 1.63202 0
352 1 Si 47.1829 174.718 1.6337 0
353 1 Si 50.1768 174.887 1.62311 0
354 1 Si 55.2312 2.66775 1.62356 0
355 1 Si 54.1098 178.13 1.62098 0
356 1 Si 58.4279 2.00368 1.63939 0
357 1 Si 60.5373 4.43681 1.62432 0
358 1 Si 57.246 9.04144 1.61026 0
359 1 Si 60.2547 7.61806 1.63075 0
360 1 Si 59.5963 177.266 1.63791 0
361 1 Si 54.9927 175.14 1.6191 0
362 1 Si 57.9827 174.389 1.63032 0
363 1 Si 144.218 32.1384 1.64114 0
364 1 Si 141.038 33.0379 1.60375 0
365 1 Si 64.867 1.1477 1.61227 0
366 1 Si 63.6952 4.00879 1.61595 0
367 1 Si 62.7732 177.139 1.62004 0
368 1 Si 150.129 31.5229 1.61695 0
369 1 Si 147.158 33.6622 1.63926 0
370 1 Si 67.9302 0.286271 1.62983 0
371 1 Si 69.0464 5.44076 1.62531 0
372 1 Si 70.3483 2.37973 1.62168 0
373 1 Si 65.8395 6.35646 1.60698 0
374 1 Si 64.6184 174.608 1.63285 0
375 1 Si 67.7044 175.499 1.6245 0
376 1 Si 153.395 32.7325 1.62815 0
377 1 Si 76.0445 3.64422 1.63158 0
378 1 Si 74.7359 6.52399 1.61255 0
379 1 Si 73.5588 1.51184 1.62405 0
380 1 Si 71.5921 7.40587 1.62345 0
381 1 Si 79.3652 3.5677 1.62867 0
382 1 Si 81.5614 5.96925 1.60742 0
383 1 Si 76.8639 8.95535 1.62098 0
384 1 Si 80.1862 8.88882 1.61608 0
385 1 Si 80.5916 0.666546 1.62951 0
386 1 Si 78.1328 176.94 1.62178 0
387 1 Si 74.8835 176.957 1.65696 0
388 1 Si 83.6608 177.995 1.61864 0
389 1 Si 79.8233 174.256 1.64001 0
390 1 Si 82.9981 174.834 1.61483 0
391 1 Si 87.1937 4.17853 1.6288 0
392 1 Si 84.7716 6.23123 1.62877 0
393 1 Si 86.6674 0.93419 1.63065 0
394 1 Si 89.705 6.32311 1.62195 0
395 1 Si 85.7698 9.26723 1.60166 0
396 1 Si 88.9787 9.57682 1.62206 0
397 1 Si 92.5215 4.76322 1.63117 0
398 1 Si 91.9415 1.23677 1.63302 0
399 1 Si 89.2778 177.275 1.61279 0
400 1 Si 174.324 30.8468 1.63598 0
401 1 Si 97.3845 1.96615 1.60946 0
402 1 Si 94.8581 178.231 1.62824 0
403 1 Si 97.8159 5.18268 1.63795 0
404 1 Si 95.1589 7.04898 1.62213 0
405 1 Si 100.105 0.218485 1.61581 0
406 1 Si 95.6357 175.035 1.62237 0
407 1 Si 98.8757 175.575 1.62576 0
408 1 Si 193.911 32.9547 1.60922 0
409 1 Si 198.95 31.5298 1.62689 0
410 1 Si 196.949 34.2737 1.61313 0
411 1 Si 13.189 13.4169 1.60932 0
412 1 Si 11.3205 16.0077 1.61406 0
413 1 Si 188.222 33.8245 1.61155 0
414 1 Si 191.337 34.9337 1.62191 0
415 1 Si 3.51164 31.8515 1.60779 0
416 1 Si 7.04823 32.2435 1.63131 0
417 1 Si 8.95922 29.4284 1.62814 0
418 1 Si 26.8072 6.96085 1.54983 0
419 1 Si 28.449 4.1087 1.62246 0
420 1 Si 27.0724 10.0708 1.57789 0
421 1 Si 26.5865 1.7928 1.56064 0
422 1 Si 202.457 31.5776 1.6069 0
423 1 Si 30.1237 7.19825 1.60604 0
424 1 Si 111.019 32.3572 1.62948 0
425 1 Si 107.381 32.0639 1.61711 0
426 1 Si 31.9329 9.66497 1.60965 0
427 1 Si 29.6533 11.7237 1.65165 0
428 1 Si 112.043 35.3723 1.63589 0
429 1 Si 135.313 34.3746 1.61216 0
430 1 Si 132.037 35.6407 1.63978 0
431 1 Si 42.4043 10.0127 1.62169 0
432 1 Si 138.584 35.2548 1.63347 0
433 1 Si 52.4145 12.9136 1.60485 0
434 1 Si 58.2718 12.2249 1.6162 0
435 1 Si 55.4756 13.9252 1.63567 0
436 1 Si 63.4623 8.61797 1.63311 0
437 1 Si 167.732 34.7889 1.63769 0
438 1 Si 159.991 35.4199 1.64343 0
439 1 Si 162.569 37.4992 1.62546 0
440 1 Si 165.831 37.488 1.63474 0
441 1 Si 174.116 33.9486 1.62676 0
442 1 Si 171.15 35.4235 1.61841 0
443 1 Si 71.25 10.6058 1.6258 0
444 1 Si 74.577 11.3113 1.62137 0
445 1 Si 180.572 34.3442 1.64281 0
446 1 Si 177.307 34.8663 1.63049 0
447 1 Si 183.021 36.7339 1.63381 0
448 1 Si 186.397 36.6543 1.62702 0
449 1 Si 82.902 10.737 1.62913 0
450 1 Si 95.8966 10.4038 1.62682 0
451 1 Si 0.452458 33.3605 1.62406 0
452 1 Si 18.6109 14.3086 1.6314 0
453 1 Si 15.6921 15.3285 1.60895 0
454 1 Si 21.6368 15.0995 1.6297 0
455 1 Si 103.994 33.2383 1.6333 0
456 1 Si 101.556 27.4422 1.621 0
457 1 Si 101.147 30.969 1.62058 0
458 1 Si 38.0604 13.2041 1.62295 0
459 1 Si 41.3683 13.1748 1.6162 0
460 1 Si 47.0026 14.0605 1.61705 0
461 1 Si 50.0687 15.1352 1.6299 0
462 1 Si 130.898 39.0844 1.61626 0
463 1 Si 146.386 37.0536 1.63057 0
464 1 Si 139.832 38.2254 1.63342 0
465 1 Si 143.223 38.4717 1.60687 0
466 1 Si 64.6072 11.6248 1.62493 0
467 1 Si 61.5745 13.2731 1.61647 0
468 1 Si 153.952 35.974 1.62302 0
469 1 Si 148.919 39.2916 1.63004 0
470 1 Si 152.112 38.7125 1.63947 0
471 1 Si 68.1501 12.1591 1.6411 0
472 1 Si 157.072 36.8087 1.61262 0
473 1 Si 75.979 14.2293 1.62885 0
474 1 Si 83.2476 13.8875 1.64459 0
475 1 Si 79.6781 14.8827 1.6214 0
476 1 Si 90.2048 12.6961 1.62985 0
477 1 Si 93.9166 13.1249 1.62625 0
478 1 Si 173.15 37.952 1.63498 0
479 1 Si 176.348 37.7876 1.63444 0
480 1 Si 13.9046 17.9002 1.62479 0
481 1 Si 197.182 37.7413 1.62156 0
482 1 Si 191.64 38.1962 1.6241 0
483 1 Si 194.51 39.9427 1.63603 0
484 1 Si 200.011 39.4323 1.64736 0
485 1 Si 29.4983 14.7904 1.63385 0
486 1 Si 23.4735 17.6579 1.62677 0
487 1 Si 26.6614 16.5112 1.59898 0
488 1 Si 9.02264 35.1081 1.63579 0
489 1 Si 35.9123 15.7583 1.6342 0
490 1 Si 32.6665 15.5717 1.60409 0
491 1 Si 109.785 37.7752 1.62903 0
492 1 Si 106.536 38.4876 1.63914 0
493 1 Si 103.663 36.6843 1.63081 0
494 1 Si 43.8434 15.4434 1.62691 0
495 1 Si 112.008 40.0996 1.61051 0
496 1 Si 51.8043 17.799 1.61478 0
497 1 Si 54.9484 17.0655 1.61701 0
498 1 Si 137.806 40.9164 1.58753 0
499 1 Si 132.097 42.7451 1.62677 0
500 1 Si 135.381 43.2418 1.63396 0
501 1 Si 69.1745 15.2474 1.63602 0
502 1 Si 62.5938 16.3342 1.63786 0
503 1 Si 66.0009 16.6617 1.6303 0
504 1 Si 72.8314 15.8128 1.61265 0
505 1 Si 162.071 40.7006 1.62709 0
506 1 Si 156.855 39.8932 1.63929 0
507 1 Si 159.202 41.877 1.62124 0
508 1 Si 166.814 40.6213 1.61136 0
509 1 Si 164.461 42.7831 1.62309 0
510 1 Si 86.9674 14.5661 1.6284 0
511 1 Si 80.5124 18.0136 1.63892 0
512 1 Si 86.9355 17.8538 1.62734 0
513 1 Si 83.7377 19.017 1.60297 0
514 1 Si 172.394 40.9598 1.61911 0
515 1 Si 169.529 42.2352 1.64024 0
516 1 Si 178.636 39.9063 1.61286 0
517 1 Si 181.79 39.765 1.62145 0
518 1 Si 174.608 43.1863 1.63421 0
519 1 Si 177.652 42.8623 1.61219 0
520 1 Si 188.531 39.3232 1.61815 0
521 1 Si 21.9822 20.7963 1.62531 0
522 1 Si 14.9316 20.9292 1.62789 0
523 1 Si 18.2399 21.8753 1.6217 0
524 1 Si 106.188 41.7587 1.61131 0
525 1 Si 103.564 43.5931 1.62791 0
526 1 Si 100.808 38.6887 1.63058 0
527 1 Si 100.757 42.1417 1.62343 0
528 1 Si 28.5574 18.9918 1.6253 0
529 1 Si 24.8194 22.9051 1.62676 0
530 1 Si 28.088 22.0595 1.62692 0
531 1 Si 43.0171 18.716 1.63091 0
532 1 Si 36.6589 19.0266 1.63156 0
533 1 Si 39.854 20.1107 1.62818 0
534 1 Si 45.5375 20.9536 1.6131 0
535 1 Si 51.5079 20.9786 1.62915 0
536 1 Si 48.5548 22.4809 1.63201 0
537 1 Si 111.446 43.2955 1.62592 0
538 1 Si 108.369 44.1897 1.61804 0
539 1 Si 143.055 41.6793 1.62006 0
540 1 Si 140.209 42.977 1.62012 0
541 1 Si 57.0282 19.477 1.6384 0
542 1 Si 60.3771 18.8483 1.62163 0
543 1 Si 127.289 45.4886 1.6282 0
544 1 Si 130.54 46.1807 1.62833 0
545 1 Si 74.5553 18.6113 1.62427 0
546 1 Si 65.9502 19.8139 1.62446 0
547 1 Si 68.9237 20.8811 1.61972 0
548 1 Si 72.028 20.4535 1.61488 0
549 1 Si 148.371 42.4815 1.60643 0
550 1 Si 145.452 43.6703 1.60896 0
551 1 Si 154.039 41.266 1.63399 0
552 1 Si 77.7184 19.7631 1.64088 0
553 1 Si 89.4872 20.1224 1.61402 0
554 1 Si 93.0712 20.5842 1.61995 0
555 1 Si 12.3865 23.0874 1.60709 0
556 1 Si 194.34 43.5168 1.61782 0
557 1 Si 199.98 42.7314 1.59282 0
558 1 Si 196.197 46.6575 1.62745 0
559 1 Si 199.273 45.9352 1.64523 0
560 1 Si 188.379 42.6821 1.62515 0
561 1 Si 191.202 44.5441 1.61757 0
562 1 Si 31.6314 18.4807 1.60556 0
563 1 Si 33.7835 20.7635 1.60855 0
564 1 Si 116.991 43.8697 1.61534 0
565 1 Si 114.052 45.1911 1.61801 0
566 1 Si 40.4007 23.3093 1.62023 0
567 1 Si 43.5901 23.4066 1.60152 0
568 1 Si 122.331 45.3104 1.6172 0
569 1 Si 119.276 46.0334 1.6242 0
570 1 Si 54.7117 21.9139 1.61937 0
571 1 Si 139.867 46.0958 1.62745 0
572 1 Si 136.669 46.3858 1.58993 0
573 1 Si 62.8988 20.8654 1.617 0
574 1 Si 154.173 44.4336 1.62777 0
575 1 Si 149.342 45.489 1.62231 0
576 1 Si 152.106 46.9482 1.64696 0
577 1 Si 69.844 23.8588 1.61889 0
578 1 Si 72.8952 23.4561 1.60679 0
579 1 Si 157.346 44.3966 1.63352 0
580 1 Si 84.1053 22.2629 1.61952 0
581 1 Si 78.4785 22.9368 1.61974 0
582 1 Si 81.472 24.3443 1.63079 0
583 1 Si 164.664 45.9713 1.59258 0
584 1 Si 158.607 47.1344 1.59352 0
585 1 Si 163.764 48.9808 1.58382 0
586 1 Si 160.815 49.2123 1.59747 0
587 1 Si 87.3614 22.7023 1.62116 0
588 1 Si 170.275 45.2956 1.6069 0
589 1 Si 166.543 48.5967 1.6169 0
590 1 Si 169.595 48.3626 1.63635 0
591 1 Si 173.34 45.9662 1.61798 0
592 1 Si 93.8413 23.8041 1.63246 0
593 1 Si 99.5092 24.5069 1.63185 0
594 1 Si 96.5009 25.74 1.63318 0
595 1 Si 182.652 42.885 1.64115 0
596 1 Si 180.068 44.7945 1.62559 0
597 1 Si 185.517 44.3678 1.62132 0
598 1 Si 17.1161 25.0102 1.61969 0
599 1 Si 13.913 25.8815 1.62631 0
600 1 Si 25.1529 26.2282 1.62038 0
601 1 Si 18.8951 27.6562 1.63325 0
602 1 Si 22.1916 27.8818 1.61676 0
603 1 Si 31.3476 23.0692 1.62748 0
604 1 Si 31.9001 26.3044 1.63339 0
605 1 Si 28.419 27.6275 1.62394 0
606 1 Si 39.1914 26.3387 1.62971 0
607 1 Si 35.7105 27.4057 1.62359 0
608 1 Si 107.212 47.2743 1.6293 0
609 1 Si 103.979 46.8513 1.62395 0
610 1 Si 45.0206 26.1969 1.61029 0
611 1 Si 48.2484 25.8238 1.62596 0
612 1 Si 124.608 47.5524 1.60149 0
613 1 Si 62.0777 23.8783 1.63849 0
614 1 Si 55.6978 25.0064 1.64363 0
615 1 Si 59.0216 25.0859 1.60921 0
616 1 Si 146.437 46.6449 1.61991 0
617 1 Si 142.036 48.5473 1.59717 0
618 1 Si 145.228 49.5477 1.63088 0
619 1 Si 64.8018 25.5818 1.59841 0
620 1 Si 67.9041 26.2081 1.64011 0
621 1 Si 75.7583 24.6733 1.63204 0
622 1 Si 88.4198 25.7265 1.64212 0
623 1 Si 91.5852 25.9859 1.63375 0
624 1 Si 191.066 47.8102 1.61539 0
625 1 Si 185.4 47.6877 1.63669 0
626 1 Si 188.2 49.2655 1.61375 0
627 1 Si 12.2184 28.7644 1.64671 0
628 1 Si 196.237 50.3793 1.62849 0
629 1 Si 193.07 50.3891 1.61838 0
630 1 Si 201.405 48.4448 1.61452 0
631 1 Si 114.46 48.3815 1.6315 0
632 1 Si 108.883 50.1867 1.64176 0
633 1 Si 112.239 50.7432 1.62257 0
634 1 Si 117.666 48.7565 1.61837 0
635 1 Si 137.068 49.7046 1.62863 0
636 1 Si 131.565 49.9778 1.61183 0
637 1 Si 134.542 51.646 1.62292 0
638 1 Si 42.2598 27.9152 1.62683 0
639 1 Si 50.2928 28.4646 1.63673 0
640 1 Si 53.634 27.7221 1.61653 0
641 1 Si 60.1066 28.0172 1.62396 0
642 1 Si 63.2016 28.2232 1.62023 0
643 1 Si 140.115 51.0959 1.60302 0
644 1 Si 69.6564 28.8424 1.6415 0
645 1 Si 75.4884 27.7849 1.60961 0
646 1 Si 72.7458 29.4326 1.63408 0
647 1 Si 157.495 49.974 1.60079 0
648 1 Si 152.103 50.2234 1.62006 0
649 1 Si 154.908 51.4978 1.61663 0
650 1 Si 179.909 47.9111 1.61691 0
651 1 Si 174.389 48.8727 1.62113 0
652 1 Si 177.369 49.7923 1.61856 0
653 1 Si 81.2942 27.7225 1.63378 0
654 1 Si 87.1068 28.6494 1.62502 0
655 1 Si 83.9633 29.6538 1.64172 0
656 1 Si 165.45 51.654 1.58873 0
657 1 Si 182.672 49.4714 1.60801 0
658 1 Si 171.804 50.6837 1.60365 0
659 1 Si 13.9544 31.473 1.63035 0
660 1 Si 17.0894 30.4362 1.6332 0
661 1 Si 107.221 53.0079 1.61928 0
662 1 Si 104.267 54.4087 1.62788 0
663 1 Si 101.845 49.3491 1.61181 0
664 1 Si 101.617 52.6362 1.6315 0
665 1 Si 27.9215 30.8864 1.63339 0
666 1 Si 22.1292 31.0999 1.61637 0
667 1 Si 24.9957 32.3712 1.62628 0
668 1 Si 36.1271 30.6864 1.616 0
669 1 Si 33.6168 32.93 1.63335 0
670 1 Si 30.1721 33.2118 1.62861 0
671 1 Si 42.686 31.1452 1.6223 0
672 1 Si 48.9132 31.6837 1.63664 0
673 1 Si 45.7034 32.9528 1.62425 0
674 1 Si 122.814 50.4267 1.63323 0
675 1 Si 119.525 51.2826 1.63178 0
676 1 Si 55.3285 30.4847 1.62404 0
677 1 Si 58.4724 30.6422 1.63684 0
678 1 Si 124.25 53.2383 1.62661 0
679 1 Si 130.443 53.1915 1.63508 0
680 1 Si 127.355 54.1534 1.62985 0
681 1 Si 142.086 53.7526 1.62262 0
682 1 Si 147.184 52.3754 1.62645 0
683 1 Si 145.22 54.9036 1.62301 0
684 1 Si 64.7157 30.8663 1.63499 0
685 1 Si 67.7671 31.3037 1.61243 0
686 1 Si 159.788 52.1261 1.564 0
687 1 Si 78.3376 29.2632 1.60714 0
688 1 Si 92.7199 28.9253 1.61436 0
689 1 Si 89.8778 30.383 1.62896 0
690 1 Si 95.9218 29.0211 1.63751 0
691 1 Si 202.085 51.6445 1.61621 0
692 1 Si 197.412 54.1183 1.63723 0
693 1 Si 200.641 54.6118 1.62607 0
694 1 Si 2.51848 50.2199 1.6407 0
695 1 Si 0.181614 52.4766 1.61863 0
696 1 Si 12.5926 34.6144 1.62629 0
697 1 Si 5.59432 51.0887 1.61985 0
698 1 Si 7.28309 48.0306 1.62995 0
699 1 Si 19.3037 32.6554 1.63994 0
700 1 Si 113.992 53.5949 1.62624 0
701 1 Si 109.042 55.5994 1.62468 0
702 1 Si 112.132 56.2502 1.63637 0
703 1 Si 117.308 53.7557 1.62453 0
704 1 Si 39.3474 31.8763 1.6298 0
705 1 Si 35.8433 35.3384 1.61475 0
706 1 Si 39.1489 35.0146 1.62017 0
707 1 Si 122.001 55.6088 1.63529 0
708 1 Si 118.869 56.5385 1.64952 0
709 1 Si 135.436 54.9764 1.62226 0
710 1 Si 132.413 55.9616 1.61664 0
711 1 Si 140.802 56.5944 1.62138 0
712 1 Si 137.828 57.453 1.64506 0
713 1 Si 150.472 53.1063 1.62113 0
714 1 Si 54.1899 33.4249 1.6539 0
715 1 Si 51.1162 34.1239 1.62741 0
716 1 Si 60.1353 33.3328 1.62267 0
717 1 Si 63.2261 33.5634 1.61597 0
718 1 Si 155.41 54.6071 1.61925 0
719 1 Si 152.479 55.9332 1.64979 0
720 1 Si 73.5598 32.4603 1.62373 0
721 1 Si 76.7386 32.071 1.63036 0
722 1 Si 166.312 54.8436 1.6379 0
723 1 Si 158.586 55.0016 1.66023 0
724 1 Si 160.397 57.632 1.61691 0
725 1 Si 163.827 57.2109 1.62353 0
726 1 Si 83.6532 32.8976 1.63091 0
727 1 Si 89.7742 33.5252 1.6295 0
728 1 Si 86.5673 34.3071 1.63551 0
729 1 Si 172.356 53.8688 1.63602 0
730 1 Si 178.096 52.8952 1.61178 0
731 1 Si 175.558 55.0506 1.63561 0
732 1 Si 169.655 55.7577 1.62173 0
733 1 Si 181.36 52.459 1.63403 0
734 1 Si 97.7774 31.7993 1.64655 0
735 1 Si 188.677 52.4542 1.63114 0
736 1 Si 186.459 54.7293 1.61979 0
737 1 Si 183.242 55.0024 1.6298 0
738 1 Si 191.775 53.3505 1.62277 0
739 1 Si 18.4556 35.7621 1.62912 0
740 1 Si 15.2097 36.9146 1.63208 0
741 1 Si 0.390418 55.7165 1.63072 0
742 1 Si 3.3048 57.0698 1.62907 0
743 1 Si 5.60572 54.5419 1.63472 0
744 1 Si 24.4852 35.5354 1.63145 0
745 1 Si 21.4731 37.175 1.6441 0
746 1 Si 107.351 58.2479 1.61306 0
747 1 Si 104.227 57.681 1.62069 0
748 1 Si 27.8318 35.6169 1.62591 0
749 1 Si 34.99 38.3673 1.63901 0
750 1 Si 28.9975 38.5212 1.64737 0
751 1 Si 32.0501 39.5113 1.62541 0
752 1 Si 41.9858 36.8633 1.62843 0
753 1 Si 37.5083 40.309 1.63506 0
754 1 Si 40.7176 39.7917 1.63415 0
755 1 Si 126.911 57.3119 1.62669 0
756 1 Si 123.831 58.0963 1.62914 0
757 1 Si 132.052 59.3119 1.63408 0
758 1 Si 128.844 59.8278 1.63381 0
759 1 Si 55.8837 36.0946 1.63689 0
760 1 Si 59.023 36.2484 1.62651 0
761 1 Si 68.4542 34.3666 1.61946 0
762 1 Si 71.5514 34.9493 1.62771 0
763 1 Si 146.007 58.1636 1.59687 0
764 1 Si 142.983 58.8384 1.61574 0
765 1 Si 77.8164 34.9932 1.63786 0
766 1 Si 81.0134 34.8281 1.61349 0
767 1 Si 92.5807 35.2958 1.61629 0
768 1 Si 96.0179 34.8531 1.64031 0
769 1 Si 192.836 56.4499 1.63024 0
770 1 Si 196.001 57.3899 1.61859 0
771 1 Si 187.476 57.7328 1.63015 0
772 1 Si 190.52 58.7359 1.64453 0
773 1 Si 202.585 57.3969 1.61846 0
774 1 Si 45.3726 36.3653 1.62007 0
775 1 Si 112.09 59.5194 1.63 0
776 1 Si 109.111 60.865 1.62603 0
777 1 Si 51.0077 37.3809 1.63901 0
778 1 Si 48.0362 38.7221 1.64096 0
779 1 Si 117.449 59.5247 1.62943 0
780 1 Si 114.7 61.3529 1.62448 0
781 1 Si 54.0187 38.6667 1.62589 0
782 1 Si 139.158 60.6073 1.63425 0
783 1 Si 134.126 62.0035 1.63221 0
784 1 Si 137.28 63.1446 1.61666 0
785 1 Si 65.5767 35.6529 1.63197 0
786 1 Si 152.398 59.3827 1.62787 0
787 1 Si 146.999 61.3857 1.63256 0
788 1 Si 150.191 61.9908 1.62562 0
789 1 Si 72.6389 37.9527 1.60964 0
790 1 Si 75.8772 37.6272 1.64178 0
791 1 Si 158.49 60.4484 1.6092 0
792 1 Si 155.169 61.1863 1.63084 0
793 1 Si 170.836 58.8748 1.63169 0
794 1 Si 165.283 60.0992 1.63653 0
795 1 Si 168.391 60.8307 1.63476 0
796 1 Si 85.8096 37.3313 1.63066 0
797 1 Si 80.5138 37.9886 1.61894 0
798 1 Si 83.2956 39.2167 1.62588 0
799 1 Si 176.235 58.3396 1.62255 0
800 1 Si 173.733 60.5222 1.61877 0
801 1 Si 91.1387 38.2444 1.62573 0
802 1 Si 88.1397 39.3461 1.6284 0
803 1 Si 182.052 58.015 1.61395 0
804 1 Si 179.256 59.7206 1.64038 0
805 1 Si 184.872 59.5454 1.62832 0
806 1 Si 97.602 37.8624 1.65354 0
807 1 Si 14.9631 40.3243 1.6239 0
808 1 Si 12.0134 42.1582 1.63779 0
809 1 Si 202.657 60.891 1.62733 0
810 1 Si 3.43165 60.5044 1.63523 0
811 1 Si 0.71086 62.5662 1.61586 0
812 1 Si 107.364 63.6352 1.64233 0
813 1 Si 103.942 63.1863 1.62917 0
814 1 Si 102.244 60.2745 1.63316 0
815 1 Si 21.037 40.4335 1.62803 0
816 1 Si 18.0235 41.9162 1.62007 0
817 1 Si 26.8038 40.7544 1.62043 0
818 1 Si 23.9113 41.9178 1.65011 0
819 1 Si 122.277 60.8475 1.64119 0
820 1 Si 119.338 62.0214 1.62843 0
821 1 Si 31.9362 42.6204 1.63318 0
822 1 Si 28.944 42.9802 1.62386 0
823 1 Si 36.9964 43.4119 1.59643 0
824 1 Si 32.5644 45.6874 1.64991 0
825 1 Si 35.5588 46.2515 1.63639 0
826 1 Si 127.232 62.5923 1.62601 0
827 1 Si 124.139 63.2666 1.62334 0
828 1 Si 42.3602 42.5122 1.62842 0
829 1 Si 39.8884 44.4741 1.61423 0
830 1 Si 48.3616 42.1504 1.6341 0
831 1 Si 45.3793 43.529 1.6376 0
832 1 Si 142.239 61.8305 1.62584 0
833 1 Si 144.735 63.917 1.63075 0
834 1 Si 64.4819 38.5657 1.63008 0
835 1 Si 61.173 38.6304 1.63107 0
836 1 Si 163.778 62.9015 1.65706 0
837 1 Si 160.56 63.0052 1.61688 0
838 1 Si 67.0028 40.6188 1.61696 0
839 1 Si 70.3782 40.3445 1.64346 0
840 1 Si 77.9916 39.9447 1.64102 0
841 1 Si 92.7125 40.9351 1.63703 0
842 1 Si 95.8606 40.6805 1.62724 0
843 1 Si 196.715 60.9878 1.64525 0
844 1 Si 191.008 61.9417 1.64733 0
845 1 Si 194.074 63.1683 1.64668 0
846 1 Si 199.755 62.7663 1.63492 0
847 1 Si 185.226 62.6727 1.63461 0
848 1 Si 188.273 63.7631 1.62828 0
849 1 Si 6.52584 61.6048 1.6155 0
850 1 Si 8.47247 55.9118 1.63872 0
851 1 Si 8.53478 59.1262 1.61547 0
852 1 Si 114.75 64.7164 1.62885 0
853 1 Si 109.062 66.5912 1.61246 0
854 1 Si 112.528 67.3816 1.63011 0
855 1 Si 117.985 64.9584 1.62635 0
856 1 Si 133.333 65.0878 1.61504 0
857 1 Si 127.807 65.6794 1.63316 0
858 1 Si 130.689 66.7344 1.61886 0
859 1 Si 56.0027 41.3058 1.62989 0
860 1 Si 54.4832 44.1977 1.61895 0