ITEM: TIMESTEP
1445
ITEM: NUMBER OF ATOMS
15492
ITEM: BOX BOUNDS pp pp pp
0.0000000000000000e+00 2.0345903123328677e+02
0.0000000000000000e+00 1.7724570278442852e+02
-1.0000000000000000e+02 1.0000000000000000e+02
ITEM: ATOMS id type element x y z v_uncoordination
1 1 Si 144.318 36.3542 1.64029 0
2 1 Si 142.971 33.2642 1.64655 0
3 1 Si 147.504 36.3877 1.62263 0
4 1 Si 144.184 30.065 1.65034 0
5 1 Si 147.666 29.3478 1.60811 0
6 1 Si 150.622 31.1671 1.6303 0
7 1 Si 149.903 34.2384 1.62996 0
8 1 Si 142.865 39.4027 1.62151 0
9 1 Si 139.764 33.6029 1.62273 0
10 1 Si 138.501 36.5936 1.62594 0
11 1 Si 139.713 39.5365 1.62837 0
12 1 Si 148.735 39.3107 1.6368 0
13 1 Si 142.703 42.735 1.62278 0
14 1 Si 147.871 42.3099 1.60734 0
15 1 Si 145.395 44.2019 1.61761 0
16 1 Si 112.088 2.96453 1.61845 0
17 1 Si 111.667 6.09115 1.60556 0
18 1 Si 110.009 0.682107 1.63755 0
19 1 Si 106.454 4.55952 1.61054 0
20 1 Si 108.629 7.04302 1.62976 0
21 1 Si 106.933 1.25928 1.61136 0
22 1 Si 115.058 2.00291 1.64162 0
23 1 Si 117.068 4.38401 1.59463 0
24 1 Si 114.801 6.84489 1.62845 0
25 1 Si 116.072 176.293 1.61295 0
26 1 Si 113.88 174.127 1.63074 0
27 1 Si 110.915 174.943 1.63863 0
28 1 Si 119.696 2.16127 1.63445 0
29 1 Si 122.486 7.33619 1.60183 0
30 1 Si 122.116 4.13853 1.62549 0
31 1 Si 115.417 9.9171 1.61173 0
32 1 Si 121.212 10.198 1.63036 0
33 1 Si 118.292 10.9922 1.59298 0
34 1 Si 118.566 174.319 1.63376 0
35 1 Si 121.108 176.096 1.62637 0
36 1 Si 125.187 9.05021 1.61319 0
37 1 Si 127.416 6.96277 1.62617 0
38 1 Si 126.79 3.93692 1.62227 0
39 1 Si 124.46 1.95059 1.6337 0
40 1 Si 141.267 7.41053 1.62033 0
41 1 Si 139.898 4.46299 1.62394 0
42 1 Si 135.717 8.41168 1.61286 0
43 1 Si 136.616 5.09413 1.62836 0
44 1 Si 138.71 9.33961 1.61595 0
45 1 Si 144.996 1.65317 1.61947 0
46 1 Si 141.625 1.64065 1.6284 0
47 1 Si 147.558 3.94573 1.64337 0
48 1 Si 147.126 7.32417 1.62323 0
49 1 Si 144.187 8.83746 1.63027 0
50 1 Si 145.638 175.66 1.62665 0
51 1 Si 142.894 173.786 1.62758 0
52 1 Si 140.279 175.798 1.61744 0
53 1 Si 150.77 2.80979 1.6329 0
54 1 Si 153.368 4.93225 1.64606 0
55 1 Si 152.696 8.22073 1.63675 0
56 1 Si 149.651 9.55954 1.62332 0
57 1 Si 151.443 176.763 1.64722 0
58 1 Si 148.782 174.615 1.64542 0
59 1 Si 156.552 3.80392 1.65013 0
60 1 Si 159.113 5.85859 1.63294 0
61 1 Si 158.316 8.92702 1.62875 0
62 1 Si 155.345 10.0867 1.61746 0
63 1 Si 157.467 0.612039 1.64158 0
64 1 Si 154.729 175.799 1.64479 0
65 1 Si 162.317 5.17953 1.64397 0
66 1 Si 163.496 2.05339 1.65011 0
67 1 Si 160.861 177.048 1.63085 0
68 1 Si 164.262 7.80867 1.62319 0
69 1 Si 163.642 10.9825 1.63588 0
70 1 Si 160.512 11.2205 1.63996 0
71 1 Si 167.352 7.47645 1.62156 0
72 1 Si 168.517 4.53182 1.61707 0
73 1 Si 166.983 1.70347 1.63163 0
74 1 Si 176.214 6.94751 1.62111 0
75 1 Si 174.179 4.11984 1.63138 0
76 1 Si 172.139 8.76019 1.63412 0
77 1 Si 171.469 5.61693 1.63017 0
78 1 Si 175.048 10.0726 1.60652 0
79 1 Si 180.881 4.41318 1.62726 0
80 1 Si 179.709 1.15052 1.6187 0
81 1 Si 179.485 7.48153 1.62058 0
82 1 Si 176.573 176.856 1.63436 0
83 1 Si 173.331 0.785514 1.6211 0
84 1 Si 169.304 10.0045 1.63042 0
85 1 Si 184.105 5.11056 1.63253 0
86 1 Si 186.183 2.66261 1.63224 0
87 1 Si 185.676 176.632 1.62886 0
88 1 Si 182.255 176.115 1.62191 0
89 1 Si 185.808 7.94794 1.63411 0
90 1 Si 184.643 10.9668 1.63803 0
91 1 Si 181.24 10.6239 1.63309 0
92 1 Si 188.972 4.25748 1.63139 0
93 1 Si 188.984 7.5184 1.64126 0
94 1 Si 191.56 2.46279 1.63446 0
95 1 Si 193.988 4.51904 1.63795 0
96 1 Si 193.984 7.7061 1.62123 0
97 1 Si 191.514 9.65958 1.61127 0
98 1 Si 191.615 176.441 1.622 0
99 1 Si 188.67 174.769 1.61724 0
100 1 Si 196.741 3.09444 1.62782 0
101 1 Si 199.328 4.8416 1.62932 0
102 1 Si 199.305 7.86914 1.59353 0
103 1 Si 196.602 9.34768 1.5846 0
104 1 Si 197.245 177.238 1.62565 0
105 1 Si 194.682 175.13 1.63776 0
106 1 Si 202.079 3.46677 1.63031 0
107 1 Si 200.47 0.596449 1.63331 0
108 1 Si 1.20137 5.52081 1.6397 0
109 1 Si 0.857087 8.99677 1.6333 0
110 1 Si 201.322 10.2252 1.61114 0
111 1 Si 3.66471 3.31327 1.62668 0
112 1 Si 2.06578 0.250463 1.62377 0
113 1 Si 202.606 175.574 1.63151 0
114 1 Si 104.059 6.76543 1.61973 0
115 1 Si 107.784 10.2377 1.62588 0
116 1 Si 104.522 10.0991 1.61421 0
117 1 Si 101.234 5.3506 1.62723 0
118 1 Si 100.139 2.28773 1.62007 0
119 1 Si 101.042 176.411 1.618 0
120 1 Si 106.527 175.204 1.63415 0
121 1 Si 103.535 174.317 1.61958 0
122 1 Si 114.862 13.0127 1.6351 0
123 1 Si 109.425 13.1773 1.6141 0
124 1 Si 112.332 14.8226 1.62074 0
125 1 Si 125.689 12.2142 1.63852 0
126 1 Si 122.675 13.0364 1.61224 0
127 1 Si 130.458 7.72907 1.62561 0
128 1 Si 131.637 4.61421 1.62926 0
129 1 Si 129.442 2.37113 1.62145 0
130 1 Si 130.723 11.0996 1.62377 0
131 1 Si 128.497 13.8221 1.63543 0
132 1 Si 133.883 11.5103 1.62666 0
133 1 Si 134.335 2.7282 1.63534 0
134 1 Si 138.522 12.4298 1.61796 0
135 1 Si 133.782 15.1926 1.6488 0
136 1 Si 136.799 15.0143 1.64623 0
137 1 Si 144.03 12.1201 1.62333 0
138 1 Si 141.332 13.6921 1.62381 0
139 1 Si 149.151 12.9144 1.64772 0
140 1 Si 146.272 14.4161 1.63244 0
141 1 Si 168.726 13.1195 1.63704 0
142 1 Si 165.538 13.6353 1.63347 0
143 1 Si 176.396 13.2036 1.63176 0
144 1 Si 170.937 15.4729 1.61795 0
145 1 Si 174.26 15.7824 1.63037 0
146 1 Si 192.848 12.8069 1.62462 0
147 1 Si 186.799 13.6542 1.62467 0
148 1 Si 190.114 14.6763 1.6272 0
149 1 Si 198.551 11.7845 1.61968 0
150 1 Si 196.29 13.9924 1.63758 0
151 1 Si 3.04373 11.5747 1.61688 0
152 1 Si 7.09659 3.93528 1.62822 0
153 1 Si 8.12717 7.21519 1.62751 0
154 1 Si 6.2804 10.2342 1.60443 0
155 1 Si 117.815 14.0901 1.5809 0
156 1 Si 120.64 15.5249 1.64348 0
157 1 Si 156.231 13.1646 1.62819 0
158 1 Si 151.131 15.505 1.61388 0
159 1 Si 154.312 15.5881 1.62572 0
160 1 Si 159.305 14.0803 1.6209 0
161 1 Si 164.353 16.6876 1.6433 0
162 1 Si 161.125 16.715 1.63241 0
163 1 Si 179.801 13.721 1.63191 0
164 1 Si 198.715 16.4353 1.61073 0
165 1 Si 202.335 16.6629 1.64641 0
166 1 Si 2.19314 15.1334 1.6322 0
167 1 Si 102.734 12.9944 1.64262 0
168 1 Si 99.435 13.3074 1.64241 0
169 1 Si 98.9938 7.58813 1.59686 0
170 1 Si 98.0227 10.5507 1.6403 0
171 1 Si 107.642 15.8809 1.62194 0
172 1 Si 104.316 15.8902 1.62477 0
173 1 Si 112.737 18.1161 1.60958 0
174 1 Si 109.494 18.5774 1.63132 0
175 1 Si 128.104 17.4428 1.62012 0
176 1 Si 121.469 18.65 1.62681 0
177 1 Si 125.186 19.4403 1.61659 0
178 1 Si 133.723 18.8846 1.64686 0
179 1 Si 130.615 19.7535 1.6068 0
180 1 Si 140.854 16.731 1.63241 0
181 1 Si 138.005 17.868 1.60169 0
182 1 Si 145.726 17.6925 1.61477 0
183 1 Si 142.886 19.0241 1.6237 0
184 1 Si 150.493 18.7043 1.62333 0
185 1 Si 147.66 20.3211 1.62573 0
186 1 Si 169.451 18.3417 1.62463 0
187 1 Si 166.313 19.3236 1.63177 0
188 1 Si 185.155 16.4534 1.64209 0
189 1 Si 181.782 16.7369 1.65235 0
190 1 Si 190.709 17.9686 1.61248 0
191 1 Si 187.487 18.7855 1.62819 0
192 1 Si 118.407 20.4409 1.63415 0
193 1 Si 114.908 20.7128 1.63598 0
194 1 Si 126.518 22.6962 1.60855 0
195 1 Si 119.3 23.4443 1.62058 0
196 1 Si 121.841 25.2515 1.61634 0
197 1 Si 124.937 25.6852 1.63266 0
198 1 Si 138.442 20.9586 1.64411 0
199 1 Si 135.514 22.0046 1.63282 0
200 1 Si 155.864 18.3525 1.61719 0
201 1 Si 153.296 20.2143 1.62726 0
202 1 Si 158.991 19.0566 1.64565 0
203 1 Si 174.951 19.0374 1.61919 0
204 1 Si 171.941 20.2875 1.6227 0
205 1 Si 180.805 20.1018 1.63683 0
206 1 Si 177.556 21.1694 1.63033 0
207 1 Si 196.857 19.2796 1.62338 0
208 1 Si 193.424 20.147 1.64231 0
209 1 Si 202.512 19.8711 1.61853 0
210 1 Si 199.54 21.1939 1.61927 0
211 1 Si 102.596 18.7356 1.63235 0
212 1 Si 99.2158 19.2771 1.60806 0
213 1 Si 96.5961 15.0211 1.62328 0
214 1 Si 96.0579 18.1422 1.62679 0
215 1 Si 108.004 21.513 1.64696 0
216 1 Si 104.629 21.3625 1.61505 0
217 1 Si 129.905 23.0546 1.60744 0
218 1 Si 141.484 21.8625 1.62415 0
219 1 Si 146.63 23.6081 1.63118 0
220 1 Si 143.321 24.4895 1.62495 0
221 1 Si 165.426 22.5946 1.63438 0
222 1 Si 159.738 22.1054 1.62671 0
223 1 Si 162.382 23.9721 1.62457 0
224 1 Si 170.98 23.2832 1.62376 0
225 1 Si 168.013 24.5855 1.62703 0
226 1 Si 186.407 21.8362 1.63562 0
227 1 Si 183.091 22.6532 1.62117 0
228 1 Si 192.347 23.4298 1.63638 0
229 1 Si 188.949 23.9555 1.63203 0
230 1 Si 1.65909 21.8902 1.63717 0
231 1 Si 4.88215 20.7869 1.62799 0
232 1 Si 5.01442 17.3047 1.62456 0
233 1 Si 113.254 23.7361 1.63075 0
234 1 Si 110.031 24.2236 1.64362 0
235 1 Si 117.463 25.9911 1.61668 0
236 1 Si 114.448 26.8361 1.62247 0
237 1 Si 135.497 25.4533 1.6198 0
238 1 Si 132.071 25.9586 1.63709 0
239 1 Si 153.964 23.2708 1.64479 0
240 1 Si 148.816 26.1925 1.62321 0
241 1 Si 152.173 25.9048 1.62122 0
242 1 Si 157.082 23.7807 1.61769 0
243 1 Si 161.202 27.1269 1.63232 0
244 1 Si 157.939 26.8066 1.61815 0
245 1 Si 176.635 24.4728 1.61486 0
246 1 Si 173.449 25.261 1.64084 0
247 1 Si 181.958 25.9327 1.62181 0
248 1 Si 178.707 27.1299 1.62097 0
249 1 Si 200.297 24.329 1.62723 0
250 1 Si 194.393 26.2165 1.62734 0
251 1 Si 197.837 26.5483 1.62898 0
252 1 Si 0.179389 24.8683 1.61746 0
253 1 Si 102.397 23.7402 1.62806 0
254 1 Si 97.2559 21.9061 1.61721 0
255 1 Si 99.1583 24.3386 1.62811 0
256 1 Si 109.308 27.5214 1.6404 0
257 1 Si 106.271 27.9975 1.64167 0
258 1 Si 103.514 26.5952 1.63218 0
259 1 Si 119.993 27.7366 1.60665 0
260 1 Si 138.254 27.8893 1.64844 0
261 1 Si 141.804 27.5057 1.6268 0
262 1 Si 168.465 27.7894 1.63826 0
263 1 Si 162.769 30.1554 1.63756 0
264 1 Si 166.279 30.3157 1.63458 0
265 1 Si 171.77 27.9957 1.63511 0
266 1 Si 187.477 26.862 1.62639 0
267 1 Si 184.412 28.1033 1.6327 0
268 1 Si 189.418 29.3687 1.63167 0
269 1 Si 192.66 29.1129 1.62311 0
270 1 Si 1.54959 27.9865 1.64028 0
271 1 Si 5.0026 28.6177 1.63036 0
272 1 Si 7.73507 22.9432 1.62615 0
273 1 Si 7.63921 26.407 1.62175 0
274 1 Si 113.244 29.9894 1.6262 0
275 1 Si 110.164 30.886 1.62228 0
276 1 Si 120.18 30.7812 1.63899 0
277 1 Si 117.545 32.5122 1.60516 0
278 1 Si 114.364 33.0228 1.63769 0
279 1 Si 130.957 29.2872 1.62331 0
280 1 Si 125.386 29.0893 1.62126 0
281 1 Si 128.058 30.8746 1.62462 0
282 1 Si 137.566 31.2012 1.61982 0
283 1 Si 131.984 32.5112 1.61874 0
284 1 Si 135.023 33.285 1.62369 0
285 1 Si 154.854 27.8419 1.62425 0
286 1 Si 173.788 30.4966 1.62959 0
287 1 Si 177.214 30.3536 1.63705 0
288 1 Si 184.32 31.4313 1.61962 0
289 1 Si 187.527 32.0046 1.62931 0
290 1 Si 199.287 29.5069 1.63733 0
291 1 Si 202.486 30.3039 1.61268 0
292 1 Si 105.547 30.9913 1.62162 0
293 1 Si 102.54 31.487 1.63056 0
294 1 Si 101.279 28.7343 1.62331 0
295 1 Si 106.079 34.0399 1.63882 0
296 1 Si 109.1 34.4183 1.63899 0
297 1 Si 123.235 31.5957 1.61748 0
298 1 Si 154.155 30.9026 1.62884 0
299 1 Si 157.207 32.5346 1.64171 0
300 1 Si 160.603 32.8864 1.6378 0
301 1 Si 168.273 33.0344 1.62968 0
302 1 Si 171.665 32.9902 1.63283 0
303 1 Si 178.797 33.4691 1.64228 0
304 1 Si 182.202 34.0671 1.63846 0
305 1 Si 194.051 32.0673 1.64185 0
306 1 Si 197.291 32.0647 1.63042 0
307 1 Si 202.047 33.5881 1.63026 0
308 1 Si 1.04417 35.5868 1.61537 0
309 1 Si 4.1047 36.3348 1.63332 0
310 1 Si 6.52481 31.6506 1.58423 0
311 1 Si 6.91716 34.9689 1.62195 0
312 1 Si 118.086 35.5368 1.61299 0
313 1 Si 112.927 36.1066 1.62835 0
314 1 Si 115.674 37.4547 1.62002 0
315 1 Si 127.705 34.2757 1.63301 0
316 1 Si 130.523 35.6586 1.62014 0
317 1 Si 152.659 35.6576 1.61996 0
318 1 Si 155.709 35.2601 1.64786 0
319 1 Si 161.415 36.2216 1.62369 0
320 1 Si 167.007 36.0599 1.61733 0
321 1 Si 164.232 37.7652 1.62825 0
322 1 Si 173.503 35.6256 1.62361 0
323 1 Si 176.705 36.1198 1.61819 0
324 1 Si 188.97 34.8751 1.63531 0
325 1 Si 192.265 34.8595 1.636 0
326 1 Si 198.966 34.7928 1.61526 0
327 1 Si 101.387 34.3242 1.64125 0
328 1 Si 98.3567 34.9422 1.64425 0
329 1 Si 98.3203 29.4009 1.62714 0
330 1 Si 96.9049 32.1642 1.6133 0
331 1 Si 103.818 36.2117 1.63499 0
332 1 Si 123.199 34.789 1.63806 0
333 1 Si 120.823 36.8277 1.62849 0
334 1 Si 125.563 36.8478 1.61152 0
335 1 Si 135.353 36.5797 1.62102 0
336 1 Si 151.715 38.6045 1.62202 0
337 1 Si 156.574 38.2421 1.62911 0
338 1 Si 159.556 38.9627 1.61982 0
339 1 Si 168.898 38.6274 1.61432 0
340 1 Si 172 38.4045 1.61695 0
341 1 Si 183.805 37.1565 1.62748 0
342 1 Si 176.832 39.4524 1.63454 0
343 1 Si 182.529 40.2011 1.62235 0
344 1 Si 179.476 41.3513 1.62447 0
345 1 Si 9.27867 1.23202 1.63182 0
346 1 Si 4.28491 175.312 1.62476 0
347 1 Si 7.44704 175.825 1.62332 0
348 1 Si 20.6339 3.62508 1.62819 0
349 1 Si 23.8368 3.23811 1.62655 0
350 1 Si 19.9136 6.70782 1.62299 0
351 1 Si 25.2839 6.14078 1.63144 0
352 1 Si 22.7819 8.19891 1.62264 0
353 1 Si 18.3589 1.40115 1.63958 0
354 1 Si 25.5328 0.503125 1.63165 0
355 1 Si 20.616 176.086 1.62391 0
356 1 Si 23.8837 174.999 1.63178 0
357 1 Si 14.3307 5.94788 1.63203 0
358 1 Si 15.0772 2.53678 1.63975 0
359 1 Si 16.9578 7.99811 1.62822 0
360 1 Si 187.152 37.5929 1.64052 0
361 1 Si 30.1277 3.55434 1.62745 0
362 1 Si 28.552 6.50401 1.6272 0
363 1 Si 28.8059 0.463903 1.62855 0
364 1 Si 33.3381 3.72916 1.63263 0
365 1 Si 34.9342 6.63573 1.62096 0
366 1 Si 30.2345 9.43542 1.6231 0
367 1 Si 33.6173 9.73402 1.63104 0
368 1 Si 34.9085 0.825577 1.62608 0
369 1 Si 30.3268 174.664 1.63821 0
370 1 Si 33.5896 174.835 1.63696 0
371 1 Si 193.828 37.7317 1.63348 0
372 1 Si 197.116 37.5128 1.6334 0
373 1 Si 38.0268 5.62541 1.61641 0
374 1 Si 37.8804 2.29487 1.61542 0
375 1 Si 45.3929 3.48043 1.60884 0
376 1 Si 48.4682 2.68463 1.61042 0
377 1 Si 45.9235 6.69028 1.62441 0
378 1 Si 50.3902 5.28415 1.62095 0
379 1 Si 48.8584 8.13852 1.6262 0
380 1 Si 43.4755 0.848699 1.61701 0
381 1 Si 49.1711 176.753 1.61325 0
382 1 Si 44.6254 175.066 1.62104 0
383 1 Si 47.5657 173.897 1.61649 0
384 1 Si 40.2989 7.96987 1.62537 0
385 1 Si 43.4103 8.48926 1.62578 0
386 1 Si 40.2901 0.198688 1.63431 0
387 1 Si 0.612593 38.6731 1.60361 0
388 1 Si 3.66438 39.4321 1.57416 0
389 1 Si 53.48 4.29376 1.62714 0
390 1 Si 54.246 1.12412 1.6143 0
391 1 Si 52.156 175.945 1.63145 0
392 1 Si 108.128 38.0458 1.62595 0
393 1 Si 111.093 39.0125 1.63575 0
394 1 Si 58.8648 5.22538 1.63203 0
395 1 Si 55.8167 6.44472 1.62161 0
396 1 Si 60.2332 7.98929 1.60962 0
397 1 Si 55.356 9.70434 1.6262 0
398 1 Si 58.3564 10.4954 1.61884 0
399 1 Si 60.8644 2.68096 1.63865 0
400 1 Si 59.8471 176.907 1.62173 0
401 1 Si 56.7693 176.449 1.63915 0
402 1 Si 64.0743 2.91447 1.62474 0
403 1 Si 64.981 5.96957 1.63333 0
404 1 Si 63.2672 8.56828 1.61744 0
405 1 Si 66.0623 0.38481 1.63059 0
406 1 Si 61.6813 174.269 1.62738 0
407 1 Si 64.7858 174.744 1.65165 0
408 1 Si 121.261 39.9324 1.6176 0
409 1 Si 116.122 40.4798 1.61797 0
410 1 Si 118.889 41.9376 1.62414 0
411 1 Si 69.8939 3.57796 1.61206 0
412 1 Si 69.2966 0.509051 1.62417 0
413 1 Si 68.0162 6.05892 1.59674 0
414 1 Si 76.3721 1.32114 1.62506 0
415 1 Si 79.6329 1.0657 1.6313 0
416 1 Si 75.5129 4.60784 1.62683 0
417 1 Si 81.7056 3.48478 1.63199 0
418 1 Si 77.4227 7.3962 1.62455 0
419 1 Si 80.5278 6.52164 1.62547 0
420 1 Si 74.7068 175.566 1.62826 0
421 1 Si 81.0971 175.491 1.64837 0
422 1 Si 76.3971 172.67 1.64156 0
423 1 Si 79.6036 172.741 1.62736 0
424 1 Si 72.4412 5.38255 1.62527 0
425 1 Si 71.3892 175.24 1.64922 0
426 1 Si 84.8574 2.60804 1.63674 0
427 1 Si 86.3131 176.942 1.63746 0
428 1 Si 84.157 174.687 1.62648 0
429 1 Si 130.736 39.1755 1.64355 0
430 1 Si 133.925 39.5782 1.63605 0
431 1 Si 91.4103 1.37539 1.65219 0
432 1 Si 94.5754 0.582421 1.62781 0
433 1 Si 90.0972 4.44368 1.61579 0
434 1 Si 96.9437 2.77162 1.62122 0
435 1 Si 96.3797 5.85407 1.61671 0
436 1 Si 90.9291 7.64464 1.63204 0
437 1 Si 93.9946 7.86502 1.62786 0
438 1 Si 89.425 175.999 1.63719 0
439 1 Si 95.5552 174.695 1.62555 0
440 1 Si 93.5756 172.026 1.65178 0
441 1 Si 90.3127 172.768 1.62991 0
442 1 Si 86.9288 4.98064 1.63308 0
443 1 Si 98.7328 174.196 1.63286 0
444 1 Si 11.4487 7.83531 1.61956 0
445 1 Si 11.464 11.1836 1.62076 0
446 1 Si 8.5298 12.685 1.62167 0
447 1 Si 154.226 40.2976 1.63595 0
448 1 Si 12.5809 0.243793 1.63485 0
449 1 Si 164.407 41.1182 1.6343 0
450 1 Si 167.559 41.5347 1.62853 0
451 1 Si 16.8843 11.2993 1.64651 0
452 1 Si 14.1144 13.1195 1.62781 0
453 1 Si 22.7081 11.3963 1.62958 0
454 1 Si 19.751 12.8705 1.62901 0
455 1 Si 173.911 40.9356 1.61805 0
456 1 Si 28.6554 12.2959 1.63633 0
457 1 Si 25.4865 13.0496 1.61573 0
458 1 Si 40.4012 11.1943 1.61229 0
459 1 Si 43.5613 11.6292 1.59793 0
460 1 Si 188.922 40.4413 1.64157 0
461 1 Si 192.191 40.6217 1.64219 0
462 1 Si 50.1308 11.1922 1.62977 0
463 1 Si 53.2713 12.1866 1.62869 0
464 1 Si 198.443 40.3824 1.62106 0
465 1 Si 201.612 40.5787 1.62726 0
466 1 Si 103.174 39.272 1.62155 0
467 1 Si 100.086 40.266 1.6308 0
468 1 Si 97.6742 38.0558 1.62589 0
469 1 Si 105.908 40.9248 1.61274 0
470 1 Si 70.5058 7.82565 1.61742 0
471 1 Si 124.419 39.9777 1.62842 0
472 1 Si 70.6125 10.8705 1.63055 0
473 1 Si 76.673 10.679 1.63277 0
474 1 Si 73.6737 11.6227 1.60578 0
475 1 Si 129.038 42.2854 1.62935 0
476 1 Si 125.746 42.9222 1.62149 0
477 1 Si 85.6854 7.90812 1.62185 0
478 1 Si 82.6561 8.8395 1.6498 0
479 1 Si 138.303 42.4738 1.62381 0
480 1 Si 135.117 42.7259 1.63397 0
481 1 Si 86.8704 10.8371 1.62524 0
482 1 Si 89.933 10.8629 1.62325 0
483 1 Si 140.282 44.9958 1.61194 0
484 1 Si 148.87 45.2919 1.62316 0
485 1 Si 153.993 43.3499 1.6024 0
486 1 Si 151.911 45.6908 1.62223 0
487 1 Si 8.21227 16.0859 1.63442 0
488 1 Si 159.457 42.2294 1.62706 0
489 1 Si 162.265 43.7076 1.62125 0
490 1 Si 169.245 44.2639 1.63738 0
491 1 Si 172.561 43.9031 1.63068 0
492 1 Si 184.368 42.9191 1.62824 0
493 1 Si 187.554 43.4061 1.63854 0
494 1 Si 35.2454 12.847 1.63005 0
495 1 Si 30.3216 15.0694 1.62008 0
496 1 Si 33.4869 15.6613 1.63367 0
497 1 Si 38.5073 13.7904 1.6225 0
498 1 Si 193.637 43.6434 1.63171 0
499 1 Si 196.814 43.1767 1.624 0
500 1 Si 45.3354 14.3037 1.62998 0
501 1 Si 48.5751 14.0161 1.62066 0
502 1 Si 201.941 43.6421 1.60655 0
503 1 Si 1.35698 44.7235 1.62878 0
504 1 Si 3.78108 42.5783 1.64874 0
505 1 Si 114.179 42.8097 1.62578 0
506 1 Si 111.155 42.3825 1.6419 0
507 1 Si 63.0976 11.6541 1.62445 0
508 1 Si 60.2125 12.9454 1.62404 0
509 1 Si 68.2813 13.0179 1.60395 0
510 1 Si 65.226 13.8541 1.62644 0
511 1 Si 118.662 45.0792 1.64064 0
512 1 Si 115.6 45.5785 1.622 0
513 1 Si 77.5798 13.9069 1.63037 0
514 1 Si 82.2535 11.9988 1.60332 0
515 1 Si 80.6062 14.7604 1.62434 0
516 1 Si 133.466 45.6788 1.60751 0
517 1 Si 130.254 45.4132 1.62217 0
518 1 Si 94.8936 10.8424 1.62165 0
519 1 Si 146.351 47.2277 1.62312 0
520 1 Si 156.988 44.2761 1.62339 0
521 1 Si 14.0223 16.5248 1.62936 0
522 1 Si 11.0458 18.1895 1.62795 0
523 1 Si 19.6323 16.0895 1.6207 0
524 1 Si 17.026 18.0162 1.62533 0
525 1 Si 161.893 47.1151 1.62117 0
526 1 Si 167.596 47.1277 1.6245 0
527 1 Si 164.683 48.7181 1.62571 0
528 1 Si 179.613 44.6583 1.61437 0
529 1 Si 182.704 45.6341 1.62453 0
530 1 Si 40.0455 16.9452 1.62298 0
531 1 Si 43.6211 17.1698 1.62151 0
532 1 Si 189.03 46.422 1.64507 0
533 1 Si 192.32 46.76 1.64885 0
534 1 Si 53.9698 15.5183 1.64423 0
535 1 Si 50.7811 16.4466 1.62498 0
536 1 Si 60.0205 16.08 1.6314 0
537 1 Si 57.0102 17.5513 1.62879 0
538 1 Si 199.208 45.2009 1.62257 0
539 1 Si 105.115 44.3755 1.65423 0
540 1 Si 101.927 45.6662 1.64318 0
541 1 Si 99.3855 43.4502 1.6248 0
542 1 Si 73.1369 14.6936 1.62343 0
543 1 Si 70.1434 15.5496 1.62305 0
544 1 Si 110.461 45.6087 1.64045 0
545 1 Si 107.433 46.8111 1.62481 0
546 1 Si 75.6346 16.5581 1.60836 0
547 1 Si 85.0458 13.3889 1.60483 0
548 1 Si 124.104 45.9205 1.60612 0
549 1 Si 121.017 47.1392 1.62856 0
550 1 Si 133.609 49.0467 1.62103 0
551 1 Si 139.472 48.2336 1.62485 0
552 1 Si 136.663 50.0443 1.62917 0
553 1 Si 93.6384 13.6947 1.63924 0
554 1 Si 90.4669 14.1774 1.6288 0
555 1 Si 156.388 47.399 1.62116 0
556 1 Si 153.332 48.4954 1.61988 0
557 1 Si 11.0189 21.7432 1.62653 0
558 1 Si 25.1826 16.2533 1.61688 0
559 1 Si 22.3902 17.7649 1.62462 0
560 1 Si 159.081 49.0774 1.61966 0
561 1 Si 28.128 17.3749 1.61512 0
562 1 Si 174.347 46.6352 1.61786 0
563 1 Si 177.572 47.1913 1.63179 0
564 1 Si 34.559 18.8351 1.62416 0
565 1 Si 37.8271 19.6551 1.62578 0
566 1 Si 184.035 48.6042 1.64039 0
567 1 Si 187.262 49.203 1.64172 0
568 1 Si 45.926 19.7437 1.6328 0
569 1 Si 49.4338 19.427 1.63106 0
570 1 Si 199.833 48.2456 1.64879 0
571 1 Si 193.859 49.8945 1.63126 0
572 1 Si 197.287 50.4258 1.61387 0
573 1 Si 63.3367 16.5059 1.60907 0
574 1 Si 65.6376 18.7994 1.62688 0
575 1 Si 69.0028 18.502 1.62619 0
576 1 Si 203.077 47.5114 1.61038 0
577 1 Si 113.146 47.4958 1.63283 0
578 1 Si 85.108 16.5401 1.62742 0
579 1 Si 82.0428 17.7383 1.63475 0
580 1 Si 128.851 48.4882 1.62872 0
581 1 Si 125.583 48.8148 1.61031 0
582 1 Si 130.898 51.1103 1.61983 0
583 1 Si 141.817 50.4695 1.62028 0
584 1 Si 145.083 50.272 1.62022 0
585 1 Si 18.5138 20.9794 1.62457 0
586 1 Si 13.8716 24.1938 1.62285 0
587 1 Si 17.2647 23.9732 1.63279 0
588 1 Si 169.437 49.6851 1.62966 0
589 1 Si 172.555 49.3122 1.62472 0
590 1 Si 21.7969 20.8973 1.62017 0
591 1 Si 178.8 50.2975 1.62447 0
592 1 Si 181.955 51.0716 1.62257 0
593 1 Si 29.0792 20.3158 1.62374 0
594 1 Si 24.0357 23.2672 1.64387 0
595 1 Si 27.216 22.85 1.59476 0
596 1 Si 32.1677 21.0762 1.59975 0
597 1 Si 188.578 52.2936 1.63632 0
598 1 Si 191.918 52.7505 1.63324 0
599 1 Si 38.5609 23.0206 1.651 0
600 1 Si 44.6342 22.8339 1.62202 0
601 1 Si 41.6079 24.2699 1.63014 0
602 1 Si 2.42676 48.9016 1.63761 0
603 1 Si 201.944 53.7313 1.63645 0
604 1 Si 1.32884 51.9369 1.6031 0
605 1 Si 198.578 53.5193 1.62047 0
606 1 Si 6.50003 44.0344 1.62008 0
607 1 Si 5.15306 47.043 1.62676 0
608 1 Si 57.7824 20.9779 1.62307 0
609 1 Si 51.7952 21.8478 1.61797 0
610 1 Si 55.0449 22.8825 1.63341 0
611 1 Si 106.987 50.1844 1.61781 0
612 1 Si 103.68 51.4426 1.63314 0
613 1 Si 101.195 49.0279 1.63558 0
614 1 Si 113.418 50.6842 1.62253 0
615 1 Si 110.086 51.8773 1.62279 0
616 1 Si 61.0017 22.4707 1.62419 0
617 1 Si 64.3041 21.6787 1.61237 0
618 1 Si 119.989 50.2728 1.62448 0
619 1 Si 116.775 51.7622 1.6261 0
620 1 Si 74.9624 19.7617 1.64433 0
621 1 Si 71.6433 20.5505 1.63427 0
622 1 Si 123.2 51.178 1.6159 0
623 1 Si 88.3783 16.8882 1.62753 0
624 1 Si 140.333 53.2736 1.6164 0
625 1 Si 137.149 53.2224 1.60905 0
626 1 Si 89.3528 20.0136 1.62985 0
627 1 Si 92.8968 19.6625 1.62412 0
628 1 Si 152.212 51.526 1.62106 0
629 1 Si 146.357 53.4193 1.61705 0
630 1 Si 149.622 53.5888 1.62324 0
631 1 Si 164.747 52.0269 1.61964 0
632 1 Si 167.861 52.4789 1.63043 0
633 1 Si 30.2937 23.6572 1.63197 0
634 1 Si 30.3717 26.7614 1.61019 0
635 1 Si 36.5734 25.7441 1.61628 0
636 1 Si 33.5994 27.0825 1.59613 0
637 1 Si 173.75 52.1847 1.63342 0
638 1 Si 176.806 52.7862 1.61936 0
639 1 Si 50.1638 24.5945 1.63784 0
640 1 Si 46.9926 25.084 1.62874 0
641 1 Si 157.978 52.2188 1.63821 0
642 1 Si 154.883 53.3043 1.62678 0
643 1 Si 62.1274 25.4959 1.62725 0
644 1 Si 67.1605 23.5276 1.6267 0
645 1 Si 65.318 26.0567 1.62478 0
646 1 Si 183.21 54.0257 1.63739 0
647 1 Si 186.353 54.7529 1.61614 0
648 1 Si 203.153 56.7264 1.62182 0
649 1 Si 3.02659 56.3469 1.63503 0
650 1 Si 4.29363 53.3093 1.60976 0
651 1 Si 80.8953 20.9695 1.63532 0
652 1 Si 77.52 21.956 1.6241 0
653 1 Si 109.908 55.1711 1.64154 0
654 1 Si 116.762 55.0932 1.61981 0
655 1 Si 113.363 56.5309 1.63452 0
656 1 Si 86.8658 22.727 1.61731 0
657 1 Si 83.3058 23.3968 1.6464 0
658 1 Si 123.427 54.3789 1.62175 0
659 1 Si 130.085 54.5991 1.6567 0
660 1 Si 126.611 55.6663 1.62292 0
661 1 Si 94.0241 22.589 1.62165 0
662 1 Si 141.356 56.2957 1.63041 0
663 1 Si 144.644 56.5107 1.62123 0
664 1 Si 13.6955 27.6601 1.63278 0
665 1 Si 10.4557 28.2719 1.62151 0
666 1 Si 163.095 54.8581 1.64364 0
667 1 Si 159.892 54.7658 1.62597 0
668 1 Si 19.588 26.4827 1.61676 0
669 1 Si 16.0003 30.493 1.62421 0
670 1 Si 19.2987 29.8061 1.62178 0
671 1 Si 169.059 55.4055 1.60939 0
672 1 Si 172.073 54.8025 1.62914 0
673 1 Si 22.8451 26.283 1.6221 0
674 1 Si 176.442 55.9181 1.6264 0
675 1 Si 181.523 56.7083 1.60712 0
676 1 Si 178.65 58.0093 1.61932 0
677 1 Si 193.157 55.9687 1.65966 0
678 1 Si 196.524 56.2449 1.62522 0
679 1 Si 55.3638 26.2057 1.62189 0
680 1 Si 52.263 26.9879 1.63897 0
681 1 Si 106.397 56.3127 1.6241 0
682 1 Si 103.094 54.9048 1.62703 0
683 1 Si 60.7037 28.3314 1.63672 0
684 1 Si 57.4788 28.8014 1.65005 0
685 1 Si 120.271 55.9032 1.62564 0
686 1 Si 70.5759 23.6413 1.64032 0
687 1 Si 76.3768 25.1926 1.63061 0
688 1 Si 73.041 26.0623 1.64342 0
689 1 Si 135.973 56.2076 1.63158 0
690 1 Si 132.742 56.9561 1.64254 0
691 1 Si 88.66 25.5166 1.6199 0
692 1 Si 91.9321 25.1461 1.64464 0
693 1 Si 125.031 58.5973 1.62473 0
694 1 Si 121.586 58.8612 1.62418 0
695 1 Si 153.83 56.3319 1.64217 0
696 1 Si 150.647 56.6863 1.61967 0
697 1 Si 9.76493 31.4263 1.61481 0
698 1 Si 24.5427 29.1337 1.62758 0
699 1 Si 27.9685 29.0459 1.61629 0
700 1 Si 163.991 58.0537 1.61955 0
701 1 Si 169.324 58.6414 1.63522 0
702 1 Si 166.565 60.1583 1.62599 0
703 1 Si 138.656 58.2047 1.62785 0
704 1 Si 38.0738 28.6234 1.60314 0
705 1 Si 33.4103 30.3238 1.60993 0
706 1 Si 36.5117 31.4698 1.65874 0
707 1 Si 41.0472 27.5135 1.62605 0
708 1 Si 158.796 57.7627 1.62032 0
709 1 Si 155.819 58.8062 1.62566 0
710 1 Si 46.0647 28.1177 1.62437 0
711 1 Si 43.3001 29.6973 1.61953 0
712 1 Si 185.961 58.016 1.63219 0
713 1 Si 191.364 58.9406 1.6165 0
714 1 Si 188.268 60.1408 1.62301 0
715 1 Si 173.688 57.403 1.6187 0
716 1 Si 48.1094 30.5012 1.63592 0
717 1 Si 51.2134 29.9691 1.64937 0
718 1 Si 197.793 59.3766 1.62962 0
719 1 Si 201.21 59.4629 1.64555 0
720 1 Si 66.2094 29.0789 1.62445 0
721 1 Si 63.2175 30.3735 1.62704 0
722 1 Si 106.537 59.554 1.6294 0
723 1 Si 109.81 60.6271 1.63703 0
724 1 Si 113.188 59.8668 1.64823 0
725 1 Si 81.9438 26.5813 1.6368 0
726 1 Si 78.7096 27.6263 1.64281 0
727 1 Si 126.96 61.2386 1.61544 0
728 1 Si 132.816 60.3369 1.63012 0
729 1 Si 130.171 62.1896 1.622 0
730 1 Si 87.3223 28.5333 1.64658 0
731 1 Si 84.0752 29.0954 1.63559 0
732 1 Si 96.9345 26.6828 1.63587 0
733 1 Si 93.9168 27.5784 1.62516 0
734 1 Si 149.32 59.6618 1.62207 0
735 1 Si 145.946 59.7093 1.61796 0
736 1 Si 11.6989 34.094 1.6115 0
737 1 Si 15.0925 33.9477 1.61674 0
738 1 Si 161.258 59.7251 1.62394 0
739 1 Si 22.2525 31.6262 1.6164 0
740 1 Si 172.238 60.154 1.61248 0
741 1 Si 30.2702 31.3987 1.62356 0
742 1 Si 183.047 59.4685 1.59513 0
743 1 Si 43.5529 32.9089 1.63055 0
744 1 Si 46.7437 33.3832 1.63078 0
745 1 Si 192.369 62.0846 1.62382 0
746 1 Si 195.651 62.0528 1.63513 0
747 1 Si 53.1542 32.4586 1.60989 0
748 1 Si 56.3343 31.9326 1.61151 0
749 1 Si 203.212 62.1084 1.62432 0
750 1 Si 3.0353 61.6321 1.62312 0
751 1 Si 4.96852 58.9453 1.62978 0
752 1 Si 72.3008 29.399 1.62844 0
753 1 Si 69.1367 30.4807 1.62664 0
754 1 Si 103.755 61.5611 1.60925 0
755 1 Si 108.756 63.5714 1.60106 0
756 1 Si 105.653 64.0465 1.60826 0
757 1 Si 119.559 61.5716 1.63766 0
758 1 Si 116.059 61.9705 1.64247 0
759 1 Si 77.884 30.9646 1.63539 0
760 1 Si 74.6857 31.8312 1.627 0
761 1 Si 125.027 63.7847 1.61363 0
762 1 Si 121.836 64.0071 1.61669 0
763 1 Si 135.437 62.4714 1.61878 0
764 1 Si 138.588 61.5398 1.64843 0
765 1 Si 94.1069 30.7531 1.63103 0
766 1 Si 89.1227 31.2277 1.6098 0
767 1 Si 91.8926 32.9044 1.63018 0
768 1 Si 154.925 61.9508 1.62259 0
769 1 Si 151.551 62.2185 1.63106 0
770 1 Si 160.695 62.8581 1.62838 0
771 1 Si 157.554 64.0977 1.63154 0
772 1 Si 9.80196 36.7873 1.6023 0
773 1 Si 166.579 63.4771 1.60696 0
774 1 Si 163.491 64.448 1.62904 0
775 1 Si 177.71 61.081 1.60729 0
776 1 Si 180.837 61.8789 1.64426 0
777 1 Si 23.0904 35.0603 1.64968 0
778 1 Si 29.7837 34.6047 1.62946 0
779 1 Si 26.5701 35.902 1.63371 0
780 1 Si 187.2 63.3071 1.61877 0
781 1 Si 190.099 64.6441 1.6144 0
782 1 Si 38.1369 34.4876 1.63329 0
783 1 Si 41.4985 35.405 1.6284 0
784 1 Si 196.308 65.2067 1.63562 0
785 1 Si 202.351 65.3189 1.627 0
786 1 Si 199.316 66.2612 1.63006 0
787 1 Si 51.9294 35.4807 1.62135 0
788 1 Si 48.6082 36.0807 1.64575 0
789 1 Si 100.488 62.5835 1.62527 0
790 1 Si 99.7239 56.7098 1.62522 0
791 1 Si 98.3896 59.9352 1.62923 0
792 1 Si 62.7412 33.5189 1.62345 0
793 1 Si 57.2848 35.0688 1.61884 0
794 1 Si 60.4149 35.8155 1.62554 0
795 1 Si 115.551 65.2025 1.62501 0
796 1 Si 109.785 66.5133 1.63321 0
797 1 Si 112.844 66.9299 1.63364 0
798 1 Si 68.421 33.6532 1.62847 0
799 1 Si 65.5105 35.0241 1.62804 0
800 1 Si 131.598 65.219 1.61891 0
801 1 Si 126.816 66.4293 1.62239 0
802 1 Si 129.746 67.7731 1.61408 0
803 1 Si 83.1524 32.2378 1.63228 0
804 1 Si 80.18 33.4349 1.6237 0
805 1 Si 134.853 65.7252 1.60658 0
806 1 Si 144.488 62.8071 1.65855 0
807 1 Si 141.179 63.8096 1.63737 0
808 1 Si 150.084 65.1242 1.63109 0
809 1 Si 146.799 65.2 1.63545 0
810 1 Si 16.8895 37.1308 1.63411 0
811 1 Si 11.3243 39.9465 1.63394 0
812 1 Si 14.8183 40.0244 1.62751 0
813 1 Si 20.5442 37.5951 1.6438 0
814 1 Si 174.647 62.4004 1.64918 0
815 1 Si 32.7328 36.4116 1.61702 0
816 1 Si 36.1358 37.0731 1.63895 0
817 1 Si 181.496 64.9865 1.61824 0
818 1 Si 184.664 65.473 1.62468 0
819 1 Si 54.7249 37.2007 1.62095 0
820 1 Si 189.097 67.9221 1.62891 0
821 1 Si 194.249 67.7678 1.63389 0
822 1 Si 191.599 69.736 1.62905 0
823 1 Si 4.81241 64.2812 1.61909 0
824 1 Si 0.750496 68.0913 1.62379 0
825 1 Si 3.80152 67.3247 1.62826 0
826 1 Si 8.019 64.4286 1.63499 0
827 1 Si 8.34544 58.9226 1.62863 0
828 1 Si 9.88487 61.8346 1.62141 0
829 1 Si 70.8102 35.7009 1.63735 0
830 1 Si 73.9744 35.0857 1.6395 0
831 1 Si 88.0148 34.1579 1.62312 0
832 1 Si 85.0435 34.8205 1.63498 0
833 1 Si 122.632 67.1334 1.63094 0
834 1 Si 117.855 67.4596 1.63166 0
835 1 Si 120.557 69.3717 1.63523 0
836 1 Si 104.999 67.0729 1.62073 0
837 1 Si 107.625 68.8185 1.63023 0
838 1 Si 92.6321 36.1001 1.6385 0
839 1 Si 89.652 36.8326 1.62951 0
840 1 Si 125.249 69.0606 1.61993 0
841 1 Si 9.58276 42.9468 1.62916 0
842 1 Si 140.473 67.2004 1.62645 0
843 1 Si 137.185 68.2391 1.63182 0
844 1 Si 27.8818 38.8673 1.60978 0
845 1 Si 21.6952 40.8821 1.62544 0
846 1 Si 24.3099 43.0522 1.61922 0
847 1 Si 27.349 42.0327 1.62969 0
848 1 Si 31.0843 39.0869 1.62275 0
849 1 Si 157.279 67.4388 1.62581 0
850 1 Si 151.406 68.1301 1.62921 0
851 1 Si 154.49 69.3319 1.62931 0
852 1 Si 43.331 38.3917 1.62551 0
853 1 Si 37.9108 40.0461 1.64335 0
854 1 Si 41.2658 40.9932 1.64855 0
855 1 Si 174.099 65.6772 1.61489 0
856 1 Si 168.212 66.3498 1.63149 0
857 1 Si 171.297 67.4238 1.61339 0
858 1 Si 46.8309 38.9661 1.63639 0
859 1 Si 176.352 68.1004 1.61045 0