LAMMPS data file via write_data, version 2 Aug 2023, timestep = 178, units = metal

15504 atoms
2 atom types

8.498814535713874 194.6914710062539 xlo xhi
6.063093866610736 171.38480127843778 ylo yhi
-100 100 zlo zhi

Masses

1 28.085
2 15.999

Atoms # full

9250 1 2 0 9.37224274946506 6.54747084599163 -2.208376441176296 0 0 0
9256 1 2 0 11.905250422003647 7.421539036901799 -2.194767748570141 0 0 0
6583 1 1 0 12.806500399211851 8.720672699205199 -1.6478444894347681 0 0 0
9254 1 2 0 12.291560450525798 10.208720957427037 -2.2067365797586365 0 0 0
13043 1 2 0 12.775442077566384 8.717098177425884 2.403464962446732e-07 0 0 0
6584 1 1 0 10.90267118393931 6.196823869735375 -1.647198084797441 0 0 0
9257 1 2 0 14.356288429548082 8.543556855566573 -2.2168150559500406 0 0 0
6824 1 1 0 15.883190357881965 8.251689407518617 -1.6476000223251133 0 0 0
9627 1 2 0 16.422488035861328 6.812090736601319 -2.252667221660813 0 0 0
9618 1 2 0 16.95941378489331 9.36576174256999 -2.220559780937799 0 0 0
6818 1 1 0 17.93890657297217 10.569008518358443 -1.6475283479793126 0 0 0
13278 1 2 0 17.94744096243817 10.56916329177012 -1.5797140583428585e-08 0 0 0
9616 1 2 0 19.48961600235326 10.4008431834196 -2.2183649506215626 0 0 0
6825 1 1 0 21.64460725785102 6.906704231343585 -1.6491532793505153 0 0 0
9620 1 2 0 21.28803620347537 8.396726651763943 -2.248360272315286 0 0 0
9629 1 2 0 23.095583268102214 6.355518001184364 -2.2292525917369903 0 0 0
6830 1 1 0 24.639089943998744 6.424656829055292 -1.6460583905959876 0 0 0
6819 1 1 0 20.96800083555602 9.895171636734851 -1.6465820931088286 0 0 0
9619 1 2 0 22.231841317989424 10.806572938801269 -2.2012140739345525 0 0 0
13290 1 2 0 24.626740434289072 6.406100306909855 -3.185145243866463e-07 0 0 0
13279 1 2 0 20.91905782598441 9.900743149357169 -1.7206532733375893e-07 0 0 0
9635 1 2 0 25.304440362485717 7.82651536602904 -2.2169967297603135 0 0 0
9651 1 2 0 30.176419566331614 6.882136130517346 -2.1478315589522294 0 0 0
9633 1 2 0 26.335003240890945 10.260057194385098 -2.2902025489908837 0 0 0
6829 1 1 0 26.52608260686065 8.769512473958182 -1.6445009863553695 0 0 0
9636 1 2 0 27.966319966814307 8.210806237616477 -2.2038340082108796 0 0 0
6838 1 1 0 29.51518491610846 8.309174897869438 -1.640931393707942 0 0 0
9641 1 2 0 30.312265221657448 9.60457159751526 -2.2962735561027157 0 0 0
13298 1 2 0 29.530806569192016 8.4363204838959 -5.819094467933125e-07 0 0 0
6832 1 1 0 31.13270848719998 10.882332035524682 -1.6435344244709713 0 0 0
13292 1 2 0 31.04167358604319 10.781171334246721 2.4507756317466872e-08 0 0 0
9643 1 2 0 33.23976982516311 8.548449193725094 -2.127425005893435 0 0 0
6839 1 1 0 33.907955924526206 7.125864474784827 -1.6370777083213857 0 0 0
9653 1 2 0 35.41302011419052 7.107164147125494 -2.294416384865814 0 0 0
9639 1 2 0 32.705283363243176 11.051974150166707 -2.148558302223653 0 0 0
6833 1 1 0 33.85119975595364 9.996179401903825 -1.6333323396084096 0 0 0
9642 1 2 0 35.324213328134135 10.33466324435383 -2.2792248457156363 0 0 0
13293 1 2 0 34.0084903386496 10.010657577485919 -2.2452586281217705e-07 0 0 0
13299 1 2 0 33.97155687310766 6.990714765761819 -2.6195245171626883e-07 0 0 0
6844 1 1 0 36.90885631141789 6.956351311818162 -1.6483830178830579 0 0 0
6835 1 1 0 36.44683593372394 11.381922192010105 -1.646949431400935 0 0 0
9658 1 2 0 37.890290985166814 8.141751436659218 -2.247454957345565 0 0 0
6843 1 1 0 38.68068182754032 9.458232105079816 -1.6459161798565947 0 0 0
9659 1 2 0 40.21476343947168 9.437447293913143 -2.244970495243249 0 0 0
9647 1 2 0 37.93165209324175 10.860761325276062 -2.1566679702497176 0 0 0
6852 1 1 0 43.394736951373915 8.032161948710883 -1.5278171829226408 0 0 0
9672 1 2 0 41.91636693684919 7.286476427392059 -1.501215325183815 0 0 0
6849 1 1 0 41.57065888651149 10.185691525655818 -1.6572745037229746 0 0 0
9668 1 2 0 42.986201553639845 9.485352709501445 -2.2334698543084777 0 0 0
9673 1 2 0 44.37542942490872 6.976950068531068 -2.353976097311843 0 0 0
9681 1 2 0 46.70813119243055 6.687751058995285 -1.3019418378451326 0 0 0
6855 1 1 0 46.69547399431261 10.752724262874251 -1.6247242086646863 0 0 0
13312 1 2 0 43.98768854110053 8.3533493381689 -4.900427074888509e-07 0 0 0
6857 1 1 0 47.84548834786594 7.8203926704895075 -1.501129856859907 0 0 0
9682 1 2 0 49.00036907202248 6.772295007034803 -2.1908941622877354 0 0 0
9678 1 2 0 46.992354326051824 9.158725430672035 -2.141531119350147 0 0 0
9679 1 2 0 48.09971511950693 11.519033972432219 -2.0924951395478675 0 0 0
9691 1 2 0 51.50976154051208 7.026020444492123 -2.128213935324579 0 0 0
9685 1 2 0 49.84645385780335 9.370420956123391 -2.114260715167032 0 0 0
6863 1 1 0 51.28022411387479 8.602344606210897 -1.647071826717442 0 0 0
6859 1 1 0 49.57870889501187 10.953977837214122 -1.6321140580227367 0 0 0
13319 1 2 0 49.67474045357259 10.991074040308643 1.9961986497301933e-08 0 0 0
9692 1 2 0 52.35193255038336 9.626180207896956 -2.3769564037610507 0 0 0
6868 1 1 0 53.51990459376264 10.411551656339036 -1.5188513543096258 0 0 0
9699 1 2 0 54.65446259598931 9.251877663147873 -1.4269978018693013 0 0 0
9706 1 2 0 55.86483479414486 7.094432384505882 -2.18412264476368 0 0 0
6872 1 1 0 56.123162970883044 8.584038644295026 -1.5068599264333162 0 0 0
9703 1 2 0 57.085744186697 9.671399911927987 -2.3298166057517244 0 0 0
13331 1 2 0 57.02201191298139 11.073993154192925 -6.537958917222491e-07 0 0 0
6871 1 1 0 57.753384209526985 10.953032750383498 -1.5058104214547812 0 0 0
6877 1 1 0 59.40762057513698 6.768762107653995 -1.6440946190499242 0 0 0
9710 1 2 0 59.63739649419328 8.329581935594323 -2.210908384287935 0 0 0
9705 1 2 0 59.3906617432335 10.805677955794003 -1.3537515157603888 0 0 0
6875 1 1 0 60.46864584173635 9.572509312408682 -1.4836239851972752 0 0 0
13337 1 2 0 59.315262375553495 6.753813418510681 -8.294960336681137e-07 0 0 0
9711 1 2 0 61.77388318880623 10.284114624920543 -2.2602725003368223 0 0 0
6884 1 1 0 62.5380148536591 11.570333590486847 -1.5093015866251926 0 0 0
13335 1 2 0 61.022577676431645 9.031158359709366 -3.589811087252318e-08 0 0 0
9735 1 2 0 63.36847476225635 6.814842793389685 -2.2878768711019157 0 0 0
6889 1 1 0 64.66125870139483 7.619611056954622 -1.6517183387723056 0 0 0
9734 1 2 0 66.06841141037151 6.967689861452213 -2.2358116721889623 0 0 0
6882 1 1 0 65.42793237241617 10.441072520262336 -1.4940500569062418 0 0 0
9723 1 2 0 64.7650559867561 9.147492418036881 -2.2809451678982184 0 0 0
9722 1 2 0 64.16281625434945 11.432335914980342 -1.3047275686010427 0 0 0
9719 1 2 0 66.60904973724034 11.270665042272935 -2.316141860227441 0 0 0
13349 1 2 0 64.52052295246195 7.585523948064733 -2.6559241668091455e-07 0 0 0
6890 1 1 0 67.54412163501797 7.205617932889672 -1.5223349474196253 0 0 0
9732 1 2 0 68.63509634310844 8.181396778869976 -2.308908401699894 0 0 0
6888 1 1 0 69.68054255286668 9.203495150503969 -1.5027377045959494 0 0 0
9721 1 2 0 69.03003254191734 10.685365974201886 -1.3816503472149329 0 0 0
9733 1 2 0 71.11785717793722 9.50145482377713 -2.2591747748300657 0 0 0
6904 1 1 0 72.64078728990833 6.116103609306111 -1.643174784983232 0 0 0
9742 1 2 0 72.90675829945404 7.647584390742284 -2.2017778027420745 0 0 0
6894 1 1 0 72.62582792477647 9.174099382916689 -1.6456243209195631 0 0 0
9739 1 2 0 73.75188108792233 10.226769883723 -2.2503286683474655 0 0 0
13354 1 2 0 72.70758802515792 9.2723309590328 -9.608538665831808e-08 0 0 0
13364 1 2 0 72.5403589890239 6.1042320125572385 -7.962153763191884e-07 0 0 0
9753 1 2 0 76.35740092934039 6.854974517088533 -2.1835902734851613 0 0 0
6902 1 1 0 77.77960969383857 7.5703682907345256 -1.6470357348063374 0 0 0
9745 1 2 0 77.96444029678342 9.151762745454011 -2.1927857981420984 0 0 0
6897 1 1 0 77.75923009936275 10.741053560105657 -1.6479398172877782 0 0 0
6892 1 1 0 74.7112340582155 11.450942077372137 -1.6492075009860871 0 0 0
9740 1 2 0 76.26832723220883 11.254709759306468 -2.202706806677623 0 0 0
13352 1 2 0 74.72573786055001 11.43162881265347 -8.501233277516782e-07 0 0 0
13357 1 2 0 77.79505972903063 10.718395486795918 -1.4639979898105808e-06 0 0 0
13362 1 2 0 77.80079713292714 7.631538197860238 -5.32973375511341e-07 0 0 0
9754 1 2 0 78.98935821938996 6.559141209502177 -2.1966720026691458 0 0 0
9760 1 2 0 83.50422895606184 7.289824555004885 -2.1865712412847924 0 0 0
9758 1 2 0 83.34114836953566 10.108129314302566 -2.1704282881015913 0 0 0
6906 1 1 0 84.174194175001 8.728917211097448 -1.6477697153950543 0 0 0
13366 1 2 0 84.14004141605444 8.775782282877332 -5.3457810341529654e-08 0 0 0
6916 1 1 0 87.14182761438921 7.892132843820804 -1.6420369406647228 0 0 0
9778 1 2 0 87.47787813296316 6.3723399606244895 -2.277447185399521 0 1 0
9761 1 2 0 85.75815121755527 8.640271783714464 -2.2003508663872524 0 0 0
9775 1 2 0 88.40824262002268 8.875336520684407 -2.0884851700137865 0 0 0
13376 1 2 0 87.00446153231171 7.745720627644946 -3.095163098610583e-07 0 0 0
9776 1 2 0 90.4868517674344 7.198575834915663 -2.2137435085578354 0 0 0
6914 1 1 0 90.00216073134858 8.688215703595217 -1.6396880265487146 0 0 0
13374 1 2 0 90.1468510580393 8.679731041252404 -1.3508702042649347e-07 0 0 0
6919 1 1 0 94.25940714660148 6.941188812468495 -1.6486905049149783 0 0 0
9783 1 2 0 92.93116879604659 6.213125046746572 -2.260279274865627 0 0 0
9780 1 2 0 94.19844776823811 8.519078477584458 -2.166109971463307 0 0 0
9772 1 2 0 90.90400666486173 9.969875318554783 -2.222319954885315 0 0 0
6917 1 1 0 95.21751993934713 9.724089231298528 -1.642955939636222 0 0 0
9779 1 2 0 94.81435398310468 11.213453013453215 -2.2330799197587363 0 0 0
13377 1 2 0 95.2351237055406 9.813065912877773 -5.74254065047343e-07 0 0 0
6913 1 1 0 91.04537467156825 11.538919068304956 -1.6458817366356657 0 0 0
9786 1 2 0 98.6939347881534 7.425144159554189 -2.297175856380947 0 0 0
9781 1 2 0 96.67513905115771 9.247617450554378 -2.24056630603928 0 0 0
6921 1 1 0 98.15536692461654 8.849998022422787 -1.649851334878142 0 0 0
9262 1 2 0 99.13751575740898 9.996185598706983 -2.269512612164009 0 0 0
9086 1 2 0 101.56284238887831 10.812248093127517 -2.2027070735061427 0 0 0
6586 1 1 0 100.07065774897823 11.183320008159418 -1.6441892383757886 0 0 0
6575 1 1 0 8.69301991387482 12.207433616701325 -1.6459686927761976 0 0 0
9244 1 2 0 10.17765310855519 11.80750785962609 -2.2334722002585514 0 0 0
6582 1 1 0 11.711615469722783 11.672221795256565 -1.64689042025536 0 0 0
9255 1 2 0 12.454264740351336 13.059544198275141 -2.1977978927815878 0 0 0
6614 1 1 0 13.609449800987496 14.121120813750663 -1.6474291186355043 0 0 0
9305 1 2 0 13.486433430394626 15.692841889398153 -2.222589807905088 0 0 0
13035 1 2 0 8.691218123972876 12.192716574266084 -2.8641474183964615e-06 0 0 0
9617 1 2 0 17.309960180119962 11.977613328508767 -2.2458515043351 0 0 0
9307 1 2 0 14.985353460529174 13.403632904641318 -2.2242760550189407 0 0 0
6820 1 1 0 16.517836808050873 13.294415877588913 -1.6463358897896812 0 0 0
9621 1 2 0 17.23272418406784 14.668074236560638 -2.223919330729615 0 0 0
6822 1 1 0 18.627181033477214 15.309635749566182 -1.6508192751357826 0 0 0
9625 1 2 0 18.864113315394366 16.804218027136503 -2.325798955261061 0 0 0
13280 1 2 0 16.515259606940383 13.23154426219608 -5.231382459772403e-07 0 0 0
9624 1 2 0 19.84697897876229 14.316056054192703 -2.157852990439088 0 0 0
6821 1 1 0 23.093898289283146 12.106712942700105 -1.6470177613744945 0 0 0
9623 1 2 0 24.636987653599014 12.221599522235515 -2.2197706911732844 0 0 0
6823 1 1 0 21.39067295276881 14.563281742149641 -1.6457344438069106 0 0 0
9622 1 2 0 22.348612826541057 13.418108881235039 -2.301163135161036 0 0 0
9626 1 2 0 21.891065805612975 16.036258637666645 -2.2297544725276137 0 0 0
6933 1 1 0 23.288373272960996 16.670905426671936 -1.62945922522691 0 0 0
9801 1 2 0 24.55389859819235 15.679168364033906 -2.0047118279668172 0 0 0
6828 1 1 0 26.12019808705285 11.754260236209422 -1.647973019579596 0 0 0
9634 1 2 0 27.399504096919436 12.649488388608246 -2.201339969469624 0 0 0
9657 1 2 0 27.104143068293475 15.226663257198902 -2.353373203118028 0 0 0
6842 1 1 0 28.04063421210346 14.082406585959172 -1.6486894600177158 0 0 0
9645 1 2 0 29.54318850911075 14.587977597018064 -2.1360415110556237 0 0 0
6934 1 1 0 26.066388639474628 16.249251503341338 -1.6383815110724227 0 0 0
13288 1 2 0 26.094780009679763 11.751452111135185 2.8066034495796256e-07 0 0 0
9640 1 2 0 30.521684124579412 12.299487519615813 -2.2075570863602962 0 0 0
6834 1 1 0 30.91851721689208 13.811240862871474 -1.6391141849872672 0 0 0
9644 1 2 0 32.30060263737708 14.499506184297504 -2.2418448236844086 0 0 0
6837 1 1 0 33.392287993264986 15.623880399647698 -1.652149788620644 0 0 0
9648 1 2 0 34.93149270701744 15.284541701283906 -2.2170043403297246 0 0 0
9646 1 2 0 36.03716260649004 12.868353165596215 -2.222691914290912 0 0 0
6836 1 1 0 36.24057380519602 14.406977027277119 -1.6467090686755175 0 0 0
13296 1 2 0 36.23365672249866 14.50674802831279 -3.0168585787979317e-07 0 0 0
9649 1 2 0 37.74237644005374 14.849377558149596 -2.213507937131474 0 0 0
6851 1 1 0 39.2873168817638 15.133863325840844 -1.6441845888072608 0 0 0
9669 1 2 0 40.52658367515316 14.178843723526917 -2.2286545318754585 0 0 0
9671 1 2 0 39.63022206750697 16.646273797884394 -2.197235021569912 0 0 0
9667 1 2 0 41.46680380974815 11.718224182907905 -2.235487087595901 0 0 0
6850 1 1 0 41.76651692989608 13.22545528664236 -1.6449735717024556 0 0 0
9670 1 2 0 43.31035456283837 13.56306923375859 -2.1742498176636795 0 0 0
9677 1 2 0 45.52536871873596 11.84348061178953 -2.1973076946210055 0 0 0
6856 1 1 0 44.878648352402095 13.316359925847767 -1.6488818364131437 0 0 0
9680 1 2 0 45.65932238892812 14.696947814658778 -2.1913091331369636 0 0 0
6861 1 1 0 46.299107057707026 16.142580262440585 -1.648512381785605 0 0 0
9688 1 2 0 47.839834929750445 16.219113846293997 -2.2397683147582317 0 0 0
9684 1 2 0 50.69518031197133 11.991282746458596 -2.2635535203543653 0 0 0
9686 1 2 0 49.87128177477201 14.543706638887208 -2.2533319817168356 0 0 0
6860 1 1 0 50.98496949805542 13.500910813621346 -1.6436647228020052 0 0 0
6862 1 1 0 49.35634587536404 15.987550602917176 -1.6507183005168427 0 0 0
13322 1 2 0 49.32164061136277 16.006907127293147 -1.1064064710671674e-06 0 0 0
9687 1 2 0 52.47970209556156 13.961124901364336 -2.1536194136984608 0 0 0
9697 1 2 0 54.08928506363955 11.787320329076712 -2.2340074249461344 0 0 0
6867 1 1 0 53.92119986624686 13.335963248804694 -1.6420565118711605 0 0 0
9698 1 2 0 55.068928136033065 14.2943802193817 -2.315169603527011 0 0 0
9707 1 2 0 57.624868004962494 15.026060857180353 -2.038675283389216 0 0 0
6874 1 1 0 56.08359226785216 15.400521800783272 -1.630384734820361 0 0 0
9704 1 2 0 57.652680828907656 12.395694534049092 -2.322533022927764 0 0 0
9709 1 2 0 55.871266517686124 16.869690527162476 -2.314628936620811 0 0 0
13334 1 2 0 55.86544962740742 15.462330116093185 -2.467922447566247e-08 0 0 0
6873 1 1 0 58.47540442800796 13.677806454046559 -1.639626100864561 0 0 0
9708 1 2 0 59.98371293125715 14.016488819033 -2.2499409870021703 0 0 0
6891 1 1 0 60.762020669824324 15.36175649831327 -1.6398960457484513 0 0 0
9737 1 2 0 60.023179526831385 16.75562284083801 -2.1405332324969866 0 0 0
13333 1 2 0 58.51518292537339 13.440702369069003 -3.9788983300795163e-07 0 0 0
9724 1 2 0 62.58899884715846 12.99758880798117 -2.351655408662296 0 0 0
9726 1 2 0 62.361873737523524 15.493151086973382 -2.0813858100488467 0 0 0
13344 1 2 0 61.827669281591724 11.76103875604437 -2.480372239665729e-07 0 0 0
6883 1 1 0 63.4186235089367 14.272508570633708 -1.6477461861450944 0 0 0
9725 1 2 0 64.9808891636894 14.608792616196085 -2.154337508084441 0 0 0
6887 1 1 0 65.68377204587865 16.0572376317398 -1.6489028468440545 0 0 0
13343 1 2 0 63.47910745775947 14.068510304727505 -2.5293465393303625e-07 0 0 0
13347 1 2 0 65.76967592813857 16.060597241450083 -2.146480249462292e-07 0 0 0
6881 1 1 0 67.92754765203135 11.87982440223175 -1.5064476170356675 0 0 0
9729 1 2 0 67.19507736084344 16.406924455282816 -2.264991787581945 0 0 0
6886 1 1 0 68.7043055143404 16.74050087314787 -1.6285136021213362 0 0 0
9720 1 2 0 68.72923869357344 13.096615146056406 -2.3006873240818964 0 0 0
13346 1 2 0 68.52190281811043 16.89288929240374 -5.227402381935524e-07 0 0 0
6885 1 1 0 69.99625134705238 13.952400842755708 -1.6361249078936335 0 0 0
9727 1 2 0 69.74723957441489 15.52875509564665 -2.045973988055746 0 0 0
9728 1 2 0 71.50165383118774 13.552267371912514 -2.2146262469665006 0 0 0
9738 1 2 0 74.11508928769284 12.907971010377178 -2.1990707486856262 0 0 0
6893 1 1 0 73.00513247162304 14.019082453932384 -1.6493873064814868 0 0 0
9741 1 2 0 73.39446233663993 15.53551214946867 -2.2107758184317388 0 0 0
13353 1 2 0 73.00301659196752 14.030100475259099 -9.357957958750612e-08 0 0 0
9744 1 2 0 78.92171536190628 11.853426873151337 -2.1594824085256112 0 0 0
9746 1 2 0 79.45220947235374 14.623455387309871 -2.126261397078303 0 0 0
6899 1 1 0 78.99392864035354 16.23800627742595 -1.6435678083394605 0 0 0
6898 1 1 0 80.01931959204232 13.043196487484517 -1.649137410550578 0 0 0
9747 1 2 0 81.5844755934184 12.46709323130381 -2.1311227735127036 0 0 0
6905 1 1 0 83.06033033629501 11.710329443339221 -1.6501797107272584 0 0 0
13365 1 2 0 83.01035440598041 11.711347196199181 -2.1252598963878468e-07 0 0 0
9759 1 2 0 84.45637151767274 12.499011456337952 -2.183250982607107 0 0 0
9765 1 2 0 85.02119884252988 15.022167271471726 -2.182375387150427 0 0 0
9773 1 2 0 89.6615765518411 12.311265851312033 -2.1430177116327287 0 0 0
6909 1 1 0 85.63393386269388 13.56667407998549 -1.6452486611921895 0 0 0
9766 1 2 0 87.2359178651644 13.454919414738766 -2.1856368806802458 0 0 0
6915 1 1 0 88.82449583590041 13.658550809331683 -1.6429088666839464 0 0 0
9777 1 2 0 89.79832608257212 14.913136499871419 -2.2155974692502225 0 0 0
6910 1 1 0 85.5341584137973 16.492615296745807 -1.6433781828749108 0 0 0
9768 1 2 0 87.10660572736064 16.612213227758268 -2.171728442145955 0 0 0
6949 1 1 0 90.5962473880378 16.268643485193905 -1.642945518509997 0 0 0
9774 1 2 0 92.41135380164688 12.347270083866432 -2.1933625856506893 0 0 0
6918 1 1 0 93.98734399759685 12.54511485365101 -1.6503234311629091 0 0 0
9782 1 2 0 94.74330533260655 13.95032529252847 -2.188609595498825 0 0 0
9827 1 2 0 92.15133794205315 16.686756038546765 -2.149430508098542 0 0 0
6922 1 1 0 96.03085909617253 14.903063282525006 -1.646394264776922 0 0 0
9787 1 2 0 96.14174366036366 16.486356745299357 -2.172459919344808 0 0 0
9261 1 2 0 99.55078577691884 12.61536880931581 -2.2641835496098603 0 0 0
6587 1 1 0 98.95870878946452 14.027420236159792 -1.644668127576591 0 0 0
9263 1 2 0 97.42072679222473 14.198690890450292 -2.222402608463168 0 0 0
9259 1 2 0 99.946138661648 15.270584223145665 -2.1391286840592407 0 0 0
6585 1 1 0 101.51193829472342 15.56708856224945 -1.6444220232976312 0 0 0
13047 1 2 0 98.90453172922652 13.963345651166497 -2.0408462895338145e-07 0 0 0
6613 1 1 0 13.414877335859705 17.261085032390064 -1.6370279735891282 0 0 0
9301 1 2 0 9.547845875123405 18.660856458819683 -2.228859022349956 0 0 0
6612 1 1 0 11.010881908225052 19.173340800813552 -1.6348865158031005 0 0 0
9303 1 2 0 11.947383968208921 17.880216911867628 -2.0680251452946927 0 0 0
9304 1 2 0 11.56255351907981 20.65196971471078 -2.234996307098243 0 0 0
6656 1 1 0 11.904978426593694 22.185026228852855 -1.6458344968185632 0 0 0
13073 1 2 0 13.649994599881113 17.17791750612687 -1.9389906497178285e-06 0 0 0
9306 1 2 0 14.444002378012105 18.402111621526053 -2.304591890629134 0 0 0
6658 1 1 0 15.594937194614856 19.305861390928584 -1.5162077774619769 0 0 0
9375 1 2 0 16.793865466612278 18.17850167572167 -1.4382435464250913 0 0 0
6932 1 1 0 18.423130360072943 18.171626741159347 -1.5144872021893754 0 0 0
9800 1 2 0 18.879365136928502 19.59483141053299 -2.2408740795670656 0 0 0
9374 1 2 0 16.12240996608009 20.706887344281732 -2.2676283616991357 0 0 0
6659 1 1 0 16.834196021117187 22.051403155906595 -1.5507264070520868 0 0 0
13392 1 2 0 19.10555797562446 18.091386496036268 -1.849385199881883e-06 0 0 0
9839 1 2 0 21.425146191635186 19.32803467050096 -2.1453156695155533 0 0 0
9802 1 2 0 23.663407957907356 18.145742432050792 -2.2733154553753145 0 0 0
6958 1 1 0 22.97408655436271 19.498579234474626 -1.636876227755746 0 0 0
6959 1 1 0 20.236358675257396 20.323384886358394 -1.628416899228887 0 0 0
9841 1 2 0 20.585856925626818 21.818475262042426 -2.206770241823819 0 0 0
9840 1 2 0 23.6301213184241 20.891855376073554 -2.2143916606517458 0 0 0
13418 1 2 0 23.05425963312648 19.567171654500296 9.38867252048509e-08 0 0 0
6990 1 1 0 25.091620637107315 21.43812246285124 -1.646569127046006 0 0 0
13450 1 2 0 25.117075457736366 21.55515452676182 -4.199238080198771e-07 0 0 0
9803 1 2 0 26.311712091336407 17.72074577396954 -2.340458515149551 0 0 0
6961 1 1 0 26.779222332155683 19.069301697382816 -1.536192270914355 0 0 0
9844 1 2 0 28.400762254932673 19.064415500147906 -1.5566659265095968 0 0 0
9845 1 2 0 26.24679566158415 20.441059754507844 -2.272006038726108 0 0 0
6962 1 1 0 29.71755154248479 20.031273908324398 -1.550928347243158 0 0 0
9846 1 2 0 29.329232492122426 21.52081898738917 -2.2082507868990855 0 0 0
9842 1 2 0 30.768728975014536 19.005660617966633 -2.3562576572536402 0 0 0
9650 1 2 0 32.8733142033209 17.110569336422273 -2.2257988399643236 0 0 0
6960 1 1 0 32.05571267304453 18.370883185372374 -1.507634740857853 0 0 0
9843 1 2 0 32.95578512575392 19.721022390620643 -1.3466205468343815 0 0 0
9854 1 2 0 35.34670983240554 19.824256559102302 -2.2118527681735842 0 0 0
9856 1 2 0 33.62982527191998 22.15307881103678 -2.274790803824548 0 0 0
6968 1 1 0 34.174273957216045 20.77671229215798 -1.501652540885075 0 0 0
13428 1 2 0 34.687069288520505 21.271254448855036 -6.398695968563384e-07 0 0 0
6967 1 1 0 36.905420485693604 19.887582250293885 -1.6503335598969273 0 0 0
9855 1 2 0 37.301092919231046 21.36427658004859 -2.2878644154632184 0 0 0
13427 1 2 0 37.01187867469091 19.775298137668525 -5.050110292251372e-07 0 0 0
6966 1 1 0 39.3814371907604 18.177593368084153 -1.6498458443288695 0 0 0
9852 1 2 0 37.922202458958694 18.722547874072305 -2.247153267068396 0 0 0
9853 1 2 0 40.64729484248241 19.043336552297866 -2.26938135507624 0 0 0
6994 1 1 0 38.34237556056159 22.40544358220372 -1.595577085621677 0 0 0
9895 1 2 0 39.818497420385626 21.7283645531763 -1.8308768132168245 0 0 0
6995 1 1 0 41.314402724265854 22.367747722817683 -1.5884250888431237 0 0 0
13426 1 2 0 39.378056852086885 18.206093202896632 -6.898234506418597e-07 0 0 0
13454 1 2 0 37.99350478539624 22.571137083805542 -1.6200671734589626e-07 0 0 0
6969 1 1 0 42.04689062586001 19.655623293459342 -1.6516927973043263 0 0 0
9857 1 2 0 43.32315693013504 18.748444042348172 -2.157683735997801 0 0 0
9858 1 2 0 42.31755735421467 21.2130737737464 -2.22106634648641 0 0 0
9689 1 2 0 45.62136368154748 17.55582573968429 -2.2295076796163955 0 0 0
6970 1 1 0 44.890118550104006 18.928615935441307 -1.640575308617028 0 0 0
9859 1 2 0 45.38210443031931 20.434220045672973 -2.1892178413825247 0 0 0
7000 1 1 0 46.15164593297929 21.818091583587872 -1.6492300340405843 0 0 0
13430 1 2 0 45.05033427979316 18.936368529214025 -7.031408268414338e-07 0 0 0
9861 1 2 0 49.191690575149615 19.458445410980286 -2.0692621142341086 0 0 0
9904 1 2 0 47.67076191737409 21.686042974108577 -2.284941143461042 0 0 0
7001 1 1 0 49.02531184121587 21.04419042253688 -1.6397814833485536 0 0 0
13461 1 2 0 48.95826013788984 21.18454389077123 -3.1007184531341574e-07 0 0 0
9690 1 2 0 50.407623745478375 17.137018541602266 -2.2298659681049906 0 0 0
6971 1 1 0 50.58950950522092 18.66511061353691 -1.6362481815996917 0 0 0
9860 1 2 0 51.871654569849994 19.487779935419653 -2.278661613376144 0 0 0
9906 1 2 0 50.32982346468022 21.85052859516393 -2.265059148994481 0 0 0
13431 1 2 0 50.76591105029218 18.60619722324861 1.303739614683371e-07 0 0 0
6973 1 1 0 53.305041249335716 20.023991515266584 -1.6424941863907583 0 0 0
9862 1 2 0 54.34799456873978 18.88485421194762 -2.171425483941301 0 0 0
9864 1 2 0 53.92302367569683 21.44676321262772 -2.2319985649463843 0 0 0
13433 1 2 0 53.18984649904738 20.139451068467206 -2.317637018761383e-08 0 0 0
6972 1 1 0 55.80205369582013 18.364471468977513 -1.645606906344912 0 0 0
9863 1 2 0 56.97414876743816 19.331887588839752 -2.278946703847066 0 0 0
13432 1 2 0 55.90030441466097 18.339265980187207 -1.6130943006327233e-07 0 0 0
7002 1 1 0 58.28037978377788 20.101755515853537 -1.645222182411987 0 0 0
9876 1 2 0 59.649381896481486 19.400996009585853 -2.2567774069434825 0 0 0
6980 1 1 0 60.621550055200004 18.22448212586624 -1.6436284588928394 0 0 0
9907 1 2 0 58.20956102338701 21.682095486158858 -2.141363910893693 0 0 0
9976 1 2 0 60.79359634804883 22.169920958830637 -2.2666558105398016 0 0 0
13440 1 2 0 60.68236825721703 18.323835697692576 -4.3553713175685175e-07 0 0 0
9875 1 2 0 62.136652429019236 18.408362607897143 -2.2705563709504495 0 0 0
9731 1 2 0 64.62457197516574 17.17234287800188 -2.2426616974518865 0 0 0
6981 1 1 0 63.65805298745304 18.356999102758184 -1.6448429948980317 0 0 0
9877 1 2 0 64.38195104756949 19.703570956601308 -2.2269866526936193 0 0 0
9914 1 2 0 63.59887012594394 22.22964133096873 -2.2536599586326065 0 0 0
7006 1 1 0 64.73870232000031 21.17468547710388 -1.6432238274038875 0 0 0
9913 1 2 0 66.25820821761211 21.42795832599085 -2.230335359930573 0 0 0
13466 1 2 0 64.82036334337097 21.26077332417248 -1.1695108570132784e-07 0 0 0
7007 1 1 0 67.3905152295697 22.47355694326442 -1.6459793385373513 0 0 0
13467 1 2 0 67.49138053505438 22.483191882146944 -6.76607942373044e-07 0 0 0
9730 1 2 0 69.47413026196 18.10858329594372 -2.1989719959377854 0 0 0
6948 1 1 0 70.89556605805261 18.813848486879557 -1.6503397599312366 0 0 0
9751 1 2 0 72.25745171269838 18.024307727043773 -2.2043736205685636 0 0 0
9911 1 2 0 68.85503491427313 22.061813286501316 -2.26477009173922 0 0 0
7005 1 1 0 70.38076889523175 21.855563866874892 -1.6488710467600833 0 0 0
9825 1 2 0 70.9427765938943 20.388204223843175 -2.1996663361065645 0 0 0
13465 1 2 0 70.39918060751123 21.867032323691078 2.975155978242706e-08 0 0 0
6900 1 1 0 73.53131636494398 17.09921050649982 -1.6473136596068234 0 0 0
13360 1 2 0 73.52013145362876 17.097944420985016 -3.1810571776844394e-08 0 0 0
9750 1 2 0 74.97236776328174 17.71818754521733 -2.199123921883572 0 0 0
9748 1 2 0 77.60601020051892 17.161968111637293 -2.1151958294210615 0 0 0
6901 1 1 0 76.42672029093842 18.327543030534525 -1.6477207355143564 0 0 0
9752 1 2 0 76.39641521786889 19.975196707944885 -2.1511630059603153 0 0 0
6984 1 1 0 76.51348409887872 21.59343819883506 -1.5643359062405044 0 0 0
9881 1 2 0 78.10815302329839 21.93921268479051 -1.7513045812937134 0 0 0
13361 1 2 0 76.51592498828781 18.377603295241524 -7.262223387964651e-07 0 0 0
13444 1 2 0 75.96803014524454 21.49883651812749 -4.14585286020479e-07 0 0 0
6985 1 1 0 79.67568812310691 21.512275265555505 -1.5762441844116324 0 0 0
9749 1 2 0 80.22228898428139 17.231741262278305 -2.197863230558788 0 0 0
9770 1 2 0 79.94084671853248 20.01138733438434 -2.238046924458771 0 0 0
6911 1 1 0 80.79009659041117 18.69819118232475 -1.6482502952062728 0 0 0
9769 1 2 0 82.31700285153244 18.89827726981264 -2.2277048916463165 0 0 0
6912 1 1 0 83.85193774357224 19.039253815162414 -1.6476290785467258 0 0 0
13371 1 2 0 80.74238854971783 18.64466269644177 -7.629413545366864e-07 0 0 0
9767 1 2 0 84.64103136781124 17.72358467984151 -2.270624089149262 0 0 0
9771 1 2 0 84.51256906550024 20.44393979840003 -2.2170256029667503 0 0 0
6987 1 1 0 85.31322118486726 21.78373810342877 -1.6490147820002174 0 0 0
9826 1 2 0 89.65642272264613 17.54477742417407 -2.1723350386424087 0 0 0
9828 1 2 0 87.54165274495855 19.24432236246028 -2.1871957769712136 0 0 0
6950 1 1 0 88.11926002021048 17.80186059875687 -1.639542462943525 0 0 0
9884 1 2 0 86.89846316437578 21.78125876879212 -2.1864467068211564 0 0 0
6986 1 1 0 88.06201721580298 20.7251297963742 -1.6427078006378948 0 0 0
9885 1 2 0 89.59348034117716 20.947760871749754 -2.234485879739377 0 0 0
13410 1 2 0 88.13230017350223 17.820771481183225 -5.735968358821594e-07 0 0 0
9837 1 2 0 91.90758000163554 19.3350025893414 -2.216566710985432 0 0 0
6956 1 1 0 92.90295007403003 18.12954097481182 -1.6493963745355782 0 0 0
9835 1 2 0 94.46703423338964 18.443413088574292 -2.176568681842121 0 0 0
6988 1 1 0 91.13107560211478 20.678242949830487 -1.6487266814241772 0 0 0
9887 1 2 0 92.02323528040586 21.925135301884676 -2.255602316322421 0 0 0
6955 1 1 0 96.03739643669171 18.082531658882402 -1.6482551812206014 0 0 0
13415 1 2 0 96.07160159496371 18.13057329010087 -1.8285305748285425e-07 0 0 0
9836 1 2 0 97.30558378176408 19.127993001948717 -2.158717528511634 0 0 0
6957 1 1 0 98.77142518664729 19.898332506290632 -1.635949997503501 0 0 0
6643 1 1 0 101.57590163486469 18.61542200714751 -1.6458184619087657 0 0 0
9352 1 2 0 99.99587711723377 18.872508285151056 -2.118353241944609 0 0 0
9838 1 2 0 99.37695086971496 21.422537904235362 -2.1380547867615705 0 0 0
6683 1 1 0 10.519166163402215 24.776351175050014 -1.6414479345758914 0 0 0
9411 1 2 0 9.128621545504615 25.409546971800914 -2.24503300585541 0 0 0
9371 1 2 0 10.695176563278329 23.213984080229157 -2.163949897157779 0 0 0
9370 1 2 0 13.28224810499921 22.9481758114674 -2.235468865892912 0 0 0
9412 1 2 0 11.688786753089117 25.831194816627566 -2.1782910773104422 0 0 0
6690 1 1 0 11.88867056923086 27.397490122769597 -1.634626871423008 0 0 0
9421 1 2 0 13.401891595254837 27.86974795575934 -2.0824200060466156 0 0 0
13143 1 2 0 10.481826688544395 24.750202505811604 -2.503583831514892e-07 0 0 0
13150 1 2 0 11.705896824378375 27.41108384916219 2.588595215782257e-08 0 0 0
6657 1 1 0 14.349111665198944 24.04822603754856 -1.5523659094589486 0 0 0
9372 1 2 0 15.80733187654911 23.314945928745338 -1.6172927146825589 0 0 0
9376 1 2 0 18.186697137958358 22.755026371177422 -2.237273959536787 0 0 0
9373 1 2 0 14.690497332379831 25.539129129898935 -2.243413489725828 0 0 0
6691 1 1 0 14.799116291184855 27.095343597540122 -1.6359322083709076 0 0 0
7024 1 1 0 19.705011394098655 23.108799441267337 -1.63893256120279 0 0 0
9940 1 2 0 20.567576471381404 24.395157179954303 -2.237524377856087 0 0 0