LAMMPS data file via write_data, version 23 Jun 2022, timestep = 7551

15516 atoms
2 atom types

5.475158759278274 198.73878866404263 xlo xhi
4.47041691748681 172.3467502559555 ylo yhi
-100 100 zlo zhi

Masses

1 28.085
2 15.999

Atoms # full

6569 1 1 0 5.509065706983417 5.191844115112387 -1.6272114272226972 0 0 0
9228 1 2 0 6.188879987416664 6.625913489762658 -2.095211515995749 0 0 0
9270 1 2 0 11.425054696764473 5.888768166659112 -2.0489384080121487 0 0 0
9607 1 2 0 16.736519258360477 5.038366344026156 -2.1209129871443135 0 0 0
6813 1 1 0 17.46099731630716 6.399449702003704 -1.640502143951754 0 0 0
9608 1 2 0 19.028375970247254 6.3929152573419845 -2.1337758934574502 0 0 0
9613 1 2 0 22.02325828635204 6.303568580167275 -2.099536333665692 0 0 0
6816 1 1 0 20.536341300952824 6.8157947026914 -1.6391216180895747 0 0 0
6819 1 1 0 23.515035829965424 5.789985847258509 -1.6127955430402496 0 0 0
9618 1 2 0 24.91490466878747 6.524213401108816 -2.125495874544738 0 0 0
9628 1 2 0 27.751175875835127 6.441857929293979 -2.14837891431786 0 0 0
6829 1 1 0 29.19335249314576 5.795080012517205 -1.609717817024553 0 0 0
9633 1 2 0 30.62097082654516 6.52710483430981 -1.9860367345886158 0 0 0
6830 1 1 0 32.21339522619364 6.65183042015171 -1.6068116448172396 0 0 0
9636 1 2 0 33.413676562951345 5.60596204813972 -2.0162783048384267 0 0 0
6843 1 1 0 39.63836081837498 5.341822530639614 -1.6308788263428518 0 0 0
9658 1 2 0 41.232517730126695 5.016271895190864 -2.0482891243356867 0 0 0
9655 1 2 0 39.430076230682225 6.9381183816609235 -2.1253535942821418 0 0 0
9669 1 2 0 44.3066575278963 4.485357981300441 -2.1113402269912878 0 0 0
6850 1 1 0 45.87752788580358 4.885997745053333 -1.6511816935600268 0 0 0
9666 1 2 0 45.78954951074798 6.441102950663604 -2.1273767528077845 0 0 0
9688 1 2 0 52.539083213099445 5.692792989684269 -1.8580309689292442 0 0 0
9695 1 2 0 57.635193406397626 6.4029410183421005 -2.0543468788434542 0 0 0
6867 1 1 0 58.91776848529016 5.5293049264071765 -1.6444478812596124 0 0 0
9698 1 2 0 60.291089079 6.205153918873343 -2.1365612662925715 0 0 0
6880 1 1 0 66.35430944362872 6.648497502336982 -1.6125148867936459 0 0 0
9720 1 2 0 66.61389175004406 5.0214037026574605 -2.099661688969477 0 0 0
9726 1 2 0 72.0876353218624 5.575465218009596 -2.0651781050924978 0 0 0
9750 1 2 0 78.21001198010588 5.352167145077519 -2.1074009087241596 0 0 0
6899 1 1 0 78.78322557793962 6.799824709452702 -1.6445550363182606 0 0 0
6916 1 1 0 83.58153233569334 5.191413338346522 -1.590398629929553 0 0 0
9759 1 2 0 82.9480996415572 6.641016096191921 -1.9239384228190914 0 0 0
9778 1 2 0 85.14230542413155 5.281769826541763 -2.0987493892178772 0 0 0
6917 1 1 0 86.72730061733722 5.282920400260105 -1.6287506560244245 0 0 0
9776 1 2 0 87.60334432393007 6.662177495883396 -2.097918477746572 0 0 0
6930 1 1 0 93.70490594397788 5.915940624063154 -1.6395513836459248 0 0 0
9800 1 2 0 92.98048498735662 4.5233168867349605 -2.1114579105227542 0 1 0
6927 1 1 0 96.91293154086087 5.857462324979392 -1.6437103560067474 0 0 0
9796 1 2 0 95.3088739070044 5.806660280212468 -2.099390909534443 0 0 0
9795 1 2 0 98.09283192547534 4.771653444334693 -2.106412597352808 0 0 0
6568 1 1 0 6.831064928910357 8.07047313371724 -1.6309589266249258 0 0 0
9226 1 2 0 5.7920856400058085 9.196105016988323 -2.1736492633356304 0 0 0
9229 1 2 0 8.33220148397284 8.566735650692776 -2.090025132365895 0 0 0
6592 1 1 0 9.720219913931563 9.336808855417459 -1.6454775174499892 0 0 0
6595 1 1 0 12.064839133398918 7.3268601630357555 -1.6225970724546939 0 0 0
9266 1 2 0 10.989048741743096 8.438221675523234 -2.135514274899789 0 0 0
9271 1 2 0 13.600513323690897 7.620460487112968 -2.124127357735762 0 0 0
6811 1 1 0 15.012956734413288 8.304779036665517 -1.635690554525125 0 0 0
9605 1 2 0 16.40549437022771 7.565614515337346 -2.062670869911175 0 0 0
9612 1 2 0 20.6248429250128 8.327809806659468 -2.1863069482095825 0 0 0
9627 1 2 0 26.423344662339908 8.840015036695503 -2.0396076367723306 0 0 0
6825 1 1 0 26.35593090305673 7.224073885790072 -1.6431171162451066 0 0 0
9635 1 2 0 32.66055731336486 8.087141490958695 -2.1847084930948193 0 0 0
6842 1 1 0 39.229306842873676 8.530995897962978 -1.6367425792452066 0 0 0
9651 1 2 0 37.686850633427284 8.94621422439065 -2.073773382261729 0 0 0
6848 1 1 0 46.19095128628972 7.930789626695506 -1.6378207122465591 0 0 0
9665 1 2 0 45.252439928933015 9.164518607793285 -2.1418245943059895 0 0 0
9667 1 2 0 47.73251663826019 7.997688530399118 -2.1412444307383973 0 0 0
6852 1 1 0 49.23428555584451 8.294621387707757 -1.6380033270292274 0 0 0
9673 1 2 0 50.485282949815996 7.370540725103532 -2.043161215890002 0 0 0
6861 1 1 0 52.02421774898876 7.19556292359622 -1.6003889123715735 0 0 0
9687 1 2 0 52.9712387758738 8.402337184516906 -2.1307704637922527 0 0 0
9690 1 2 0 55.48117369419902 8.196026534975747 -2.1284448692106257 0 0 0
6862 1 1 0 54.30584531176939 9.18136225166792 -1.6519947891663807 0 0 0
6866 1 1 0 56.93343834678716 7.7734869664933415 -1.6251170552677787 0 0 0
9696 1 2 0 57.97327177815739 8.90221974060037 -2.106190991319107 0 0 0
9706 1 2 0 60.60887039153644 8.763616733293734 -1.851030926809585 0 0 0
6875 1 1 0 61.29179745160687 7.324257828465094 -1.570943136636391 0 0 0
9710 1 2 0 62.79860677893645 7.603582372397547 -2.0009378393138877 0 0 0
6882 1 1 0 63.980810227351775 8.633464136954824 -1.6110158305539244 0 0 0
9719 1 2 0 65.05681322201117 7.52562021784979 -2.1633756335746925 0 0 0
9716 1 2 0 66.90566647569233 8.260888488522873 -1.9659186956611345 0 0 0
6884 1 1 0 71.70613981300848 7.205432093371805 -1.602719510445013 0 0 0
9724 1 2 0 70.76723846026474 8.588501748017467 -2.0796212013286786 0 0 0
9725 1 2 0 72.91383139790688 8.250592586398351 -2.0376846254969707 0 0 0
9729 1 2 0 75.29633401318064 9.19567895469635 -2.1500733622311667 0 0 0
9746 1 2 0 77.73115638551948 7.908009484272323 -2.184245296925269 0 0 0
6896 1 1 0 76.82697232857898 9.12970001586465 -1.6334689855141333 0 0 0
9751 1 2 0 80.29971906661139 7.152315699963229 -2.136009767891362 0 0 0
6904 1 1 0 81.75013311561041 7.676640477803149 -1.6086434830951406 0 0 0
9756 1 2 0 82.3158421135464 9.100297238394354 -2.157083120236437 0 0 0
6915 1 1 0 88.34003464772694 8.132757700617644 -1.6536112884417296 0 0 0
9777 1 2 0 89.9804194823413 8.244319688894727 -2.1150193474742403 0 0 0
6919 1 1 0 91.60781422530742 8.349065591653902 -1.621801092229791 0 0 0
9784 1 2 0 92.69756286792683 7.165574629214158 -2.0758486099941242 0 0 0
6924 1 1 0 98.16408587003242 8.673565755025814 -1.620668444454045 0 0 0
9792 1 2 0 97.44176042571735 7.31558025991274 -2.160425224837515 0 0 0
9073 1 2 0 99.73468543505743 8.567793766036546 -2.045512673735694 0 0 0
6476 1 1 0 101.25770433545584 8.94947351565139 -1.6228612796859292 0 0 0
9265 1 2 0 10.032990780312218 10.872323826068248 -2.161762734664013 0 0 0
6812 1 1 0 15.60504285782122 11.329827182897473 -1.6449855471819455 0 0 0
9604 1 2 0 15.16580997384046 9.845123739226267 -2.1349214932880947 0 0 0
9606 1 2 0 17.07846964230054 11.791859230833856 -2.162697078751475 0 0 0
9614 1 2 0 19.387794435949672 10.596823305057585 -1.8736466664696514 0 0 0
6817 1 1 0 20.757031311213865 9.802903691444376 -1.5840032806371593 0 0 0
9615 1 2 0 22.14207859770566 10.47968103758659 -2.047839534350928 0 0 0
9629 1 2 0 24.699325572459337 11.007793744660903 -2.1762198729194364 0 0 0
6827 1 1 0 23.27303781527547 11.55224031389977 -1.609849550912338 0 0 0
6826 1 1 0 26.131037544436275 10.42091326624387 -1.6344799778267711 0 0 0
9630 1 2 0 27.13299580747952 11.636544209945049 -2.127778854424407 0 0 0
9637 1 2 0 31.95337868465858 10.547337915771713 -2.1379197204202494 0 0 0
6832 1 1 0 30.92080529884116 11.733418697441607 -1.599109350845708 0 0 0
6831 1 1 0 33.160652054697486 9.527799269915825 -1.6580521779778703 0 0 0
9638 1 2 0 34.73736370550369 9.51885400528342 -2.1481657385282658 0 0 0
6839 1 1 0 36.29293465469195 9.690539859822596 -1.606141709145843 0 0 0
9650 1 2 0 36.34455109215229 11.245653095424014 -2.076471718086253 0 0 0
6845 1 1 0 41.40142036962688 10.91566993199682 -1.632277079680542 0 0 0
9656 1 2 0 40.308792732471396 9.73462447608508 -2.099235892704056 0 0 0
9661 1 2 0 42.9361844728855 10.61279767274436 -2.1544597093355153 0 0 0
6849 1 1 0 44.49201869124851 10.52555080655701 -1.6381046701175606 0 0 0
9668 1 2 0 45.40632629786504 11.83528994908628 -2.025080026030487 0 0 0
9674 1 2 0 48.03684440442621 11.697354050611633 -1.9747043967743294 0 0 0
6853 1 1 0 49.55699603421426 11.290207674841684 -1.6158713411505918 0 0 0
9672 1 2 0 49.64516828395963 9.771475110719166 -2.1346836477806317 0 0 0
9689 1 2 0 54.7790745224066 10.650083689456176 -2.15533103518008 0 0 0
6872 1 1 0 59.29292412079497 9.643934970125754 -1.5747140378362028 0 0 0
9705 1 2 0 59.37982255824651 11.173314173234315 -2.0249238459712755 0 0 0
9721 1 2 0 63.42994394623258 10.089105500372511 -2.15369251800844 0 0 0
6881 1 1 0 62.8922789793676 11.55005847394929 -1.6189758071931073 0 0 0
6879 1 1 0 66.93056503506715 9.956650294522621 -1.6428246769871229 0 0 0
9717 1 2 0 66.2879554422103 11.510042100173658 -2.0697558380469205 0 0 0
9718 1 2 0 68.48045208346065 10.004132195771055 -2.1635542255343703 0 0 0
6885 1 1 0 70.02247845863315 10.06034127578797 -1.627392988100831 0 0 0
9727 1 2 0 70.17754323760239 11.711629552256765 -2.016797006143921 0 0 0
6886 1 1 0 73.803473070181 9.557539269811432 -1.6185465096007008 0 0 0
9728 1 2 0 73.37036251452903 11.085127205539242 -2.068066059251925 0 0 0
9745 1 2 0 77.52463424377383 10.499508307805879 -2.115124846826436 0 0 0
9755 1 2 0 82.39106355964002 11.73896686970569 -2.036962516774931 0 0 0
6902 1 1 0 83.17911401623456 10.373837731260771 -1.6158445319382075 0 0 0
9757 1 2 0 84.76848275272674 10.227460034318597 -1.9636839802493118 0 0 0
6911 1 1 0 86.29860094604123 10.70899173050377 -1.603853089185647 0 0 0
9770 1 2 0 87.42049240562969 9.510008718763789 -2.0509497205490472 0 0 0
9781 1 2 0 92.4184349265753 9.746176954343623 -2.021832909215402 0 0 0
6918 1 1 0 93.35408716099323 11.05707684391612 -1.6253051126694174 0 0 0
9783 1 2 0 94.9413942158751 11.130422064311036 -2.1157102780659858 0 0 0
6925 1 1 0 96.51840448864213 11.349778281015762 -1.6441986558900572 0 0 0
9791 1 2 0 97.41628532863871 10.049604717072196 -2.1001425341675293 0 0 0
9071 1 2 0 101.49040154345289 10.478320558119405 -2.084300533742785 0 0 0
9263 1 2 0 6.83768781867668 13.672051313538425 -2.1715328300214565 0 0 0
9267 1 2 0 9.469384063995163 13.477088787184197 -2.073084284074563 0 0 0
6594 1 1 0 10.538783599796261 12.346659436008348 -1.6219986215519906 0 0 0
9269 1 2 0 11.984961763528243 12.953671537368933 -2.0995205748058385 0 0 0
6638 1 1 0 13.45020373516092 13.516936041273429 -1.6331772863279668 0 0 0
9336 1 2 0 14.512599796730862 12.407765564277057 -2.1389485684100142 0 0 0
6818 1 1 0 18.586140437007536 11.968498412928867 -1.588506225732276 0 0 0
9616 1 2 0 19.68964244848093 13.046369723533239 -2.1030905581709347 0 0 0
6935 1 1 0 21.103544609656918 13.715159259763073 -1.6438024017141946 0 0 0
9631 1 2 0 22.45252756208909 12.8945195652557 -2.0460245959088463 0 0 0
6833 1 1 0 28.00345035510217 12.957346289409529 -1.6280252261178774 0 0 0
9639 1 2 0 29.493962191166073 12.403933530780604 -2.1025967686674383 0 0 0
9640 1 2 0 31.997260318351657 12.841879813890086 -2.0992867192217703 0 0 0
6841 1 1 0 33.14230761018085 13.852510251080462 -1.5925543024684943 0 0 0
9652 1 2 0 34.64236895239091 13.471676431615476 -2.130635909762951 0 0 0
6840 1 1 0 36.00876609236292 12.74816752604637 -1.5854373634188625 0 0 0
9653 1 2 0 37.394952794264945 13.542376594807047 -1.8054182894341517 0 0 0
9660 1 2 0 41.12624496793981 12.50018890569568 -2.052656364259459 0 0 0
6846 1 1 0 41.1269800205647 14.109861448867928 -1.6465247363588666 0 0 0
6854 1 1 0 46.77179716922387 12.633674378254394 -1.589510147782628 0 0 0
9676 1 2 0 47.48064630212837 13.999448379131621 -2.169411976720983 0 0 0
9675 1 2 0 50.754600850035246 12.229705610364755 -2.1656450391064115 0 0 0
6864 1 1 0 52.032863173789956 13.047919199549643 -1.6011391079181814 0 0 0
9691 1 2 0 53.49559687159493 12.678268316715487 -2.1743936949791 0 0 0
6863 1 1 0 54.944158234471125 12.184949182384843 -1.6430638393364054 0 0 0
9692 1 2 0 56.20601944620469 13.074907632365392 -2.1591963174241515 0 0 0
6874 1 1 0 57.37813746993405 14.098725651391092 -1.659557620734516 0 0 0
6873 1 1 0 60.019569723213024 12.595499658658255 -1.604527807459808 0 0 0
9707 1 2 0 58.85619657801961 13.60132629818229 -2.1171604137328206 0 0 0
9708 1 2 0 61.51931806847831 12.257396601387244 -2.1500021128194877 0 0 0
9722 1 2 0 64.05058901950042 12.617744328118564 -1.9525730524232854 0 0 0
6883 1 1 0 65.58268653488136 13.030546696679991 -1.6108307494108611 0 0 0
6888 1 1 0 70.30011748708509 13.36505082157484 -1.6223858636668185 0 0 0
9730 1 2 0 71.90711912376294 13.385778658294656 -2.0125811463377086 0 0 0
6887 1 1 0 73.3410886476313 12.682834084172177 -1.6325758847460632 0 0 0
9731 1 2 0 74.61647447317188 13.59661242451646 -2.1469935611715876 0 0 0
9747 1 2 0 77.18489583460313 13.127906884556563 -2.0633943278342493 0 0 0
6898 1 1 0 76.05349499654763 14.204272097306285 -1.6143614213303565 0 0 0
6897 1 1 0 78.13721556867011 11.899830704282104 -1.6192794508814556 0 0 0
9748 1 2 0 79.66070433872868 12.060410885900772 -2.1518872651271495 0 0 0
6903 1 1 0 81.08886288910558 12.622212944161802 -1.6166501737423484 0 0 0
9758 1 2 0 81.03505798718923 14.17908137110925 -2.067435249877777 0 0 0
9769 1 2 0 86.12542186016243 12.315944845226321 -2.1103907369850154 0 0 0
6912 1 1 0 86.09470312915923 13.943414113031066 -1.6512907647199593 0 0 0
9772 1 2 0 87.63238510133527 14.296926243415434 -2.1388629818668186 0 0 0
6920 1 1 0 92.06371487124797 13.883514463327606 -1.641127693192412 0 0 0
9785 1 2 0 90.53098668970733 14.277674806074668 -2.12247744721783 0 0 0
9782 1 2 0 92.58082271573517 12.410965578798088 -2.144226191172374 0 0 0
6926 1 1 0 98.67045861852829 13.633453893939382 -1.6145412940405233 0 0 0
9793 1 2 0 97.34238066729749 12.73632844233414 -2.059219162701111 0 0 0
6477 1 1 0 101.32421628800077 12.011192281694099 -1.6070776241134586 0 0 0
9074 1 2 0 99.906352031568 12.659790054216728 -2.030632822933461 0 0 0
6593 1 1 0 8.196984115384845 14.364458899521692 -1.6281931346592882 0 0 0
9268 1 2 0 8.294201198685858 15.897877098129326 -2.139875601663864 0 0 0
9335 1 2 0 13.999545462090389 14.973003567059909 -2.1624288002959107 0 0 0
6639 1 1 0 14.543168924988068 16.44445721145069 -1.6374747818279536 0 0 0
9807 1 2 0 21.10549401151446 15.228704127851142 -2.1924777599268346 0 0 0
6938 1 1 0 20.93512394146658 16.750001242745657 -1.6457133518997125 0 0 0
6939 1 1 0 27.09403161062012 16.096421500121686 -1.638492212109038 0 0 0
9813 1 2 0 25.535629133992682 16.635605227671913 -2.0721759564736395 0 0 0
9641 1 2 0 27.49275163969691 14.505931811955085 -2.051364317326112 0 0 0
9654 1 2 0 32.442843179050975 15.286346463246653 -1.8767551743065016 0 0 0
9664 1 2 0 36.87145992939561 15.843177151640543 -2.1643289142696407 0 0 0
6979 1 1 0 35.592041188368356 16.75676968518885 -1.6605650163517294 0 0 0
6847 1 1 0 38.13871964073079 14.961364286906079 -1.5799298118446226 0 0 0
9662 1 2 0 39.685666602601266 14.77570176100173 -2.1056029392688593 0 0 0
9663 1 2 0 42.41093007618827 15.051168767058027 -2.1248451574575755 0 0 0
6946 1 1 0 43.34257267069315 16.321633175741702 -1.6194564680108299 0 0 0
9825 1 2 0 44.88243763175723 16.705692323842445 -2.0728184945872266 0 0 0
6945 1 1 0 48.34607591756517 15.29526304903843 -1.6475744061319937 0 0 0
9823 1 2 0 47.39346839042194 16.483166351713024 -2.1536308328066593 0 0 0
6949 1 1 0 51.35304819359041 16.058670607073996 -1.5869491823369537 0 0 0
9824 1 2 0 49.83622482081782 15.763040017630866 -2.147619932036407 0 0 0
9693 1 2 0 51.960123456018984 14.609997274986444 -1.9482077407115985 0 0 0
9709 1 2 0 57.18884054773665 15.62656734606829 -2.170253276582151 0 0 0
9723 1 2 0 65.4513210693811 14.68205306800943 -2.089656718830629 0 0 0
6954 1 1 0 65.35197478693307 16.33932154479009 -1.6073998784140848 0 0 0
9836 1 2 0 67.02657825104883 16.58216185795563 -1.8684290715518155 0 0 0
9732 1 2 0 69.33681007652747 14.715478096845763 -2.075170764318391 0 0 0
6955 1 1 0 68.67787880464779 16.241711205890642 -1.616071437329098 0 0 0
9749 1 2 0 76.7151264252558 15.638996735610426 -2.059473891344132 0 0 0
6960 1 1 0 77.83832029062258 16.767532957001997 -1.6419672288481901 0 0 0
9774 1 2 0 79.38581816078988 16.378951794540892 -2.1055940195743155 0 0 0
6913 1 1 0 80.8335417068934 15.734464597996679 -1.614997902866706 0 0 0
9773 1 2 0 82.3237378191533 16.223842801867345 -2.138023012417914 0 0 0
9771 1 2 0 84.96280144887237 15.148119294429257 -2.073166534268362 0 0 0
6914 1 1 0 83.89604140843718 16.406430193622406 -1.6401592133142988 0 0 0
6921 1 1 0 89.07825771587406 14.880938103253897 -1.616641731216299 0 0 0
9787 1 2 0 88.89503038882596 16.435554113002915 -2.071108377306551 0 0 0
9786 1 2 0 93.22484168952786 14.973101098072094 -2.0517797971613274 0 0 0
6963 1 1 0 93.91262208798045 16.391216779302155 -1.5954039029790794 0 0 0
9794 1 2 0 99.09577299790773 15.15218795969317 -2.1269147980296275 0 0 0
6964 1 1 0 99.28930629265393 16.724701959050837 -1.6475285245431364 0 0 0
9330 1 2 0 7.212364698428061 18.30848935484034 -2.0995362917863516 0 0 0
6636 1 1 0 5.825712367532986 19.126936260274974 -1.65283860312607 0 0 0
6635 1 1 0 8.555035708625379 17.42744734584678 -1.6481075837561316 0 0 0
9331 1 2 0 10.132227099270708 17.68012685818356 -2.1416155629767175 0 0 0
6637 1 1 0 11.694998952963354 17.963456396998165 -1.6064832889457716 0 0 0
9333 1 2 0 13.179102556105365 17.328615691680636 -2.057287149070571 0 0 0
9337 1 2 0 16.141829843062155 16.814763388635654 -2.0804603867589315 0 0 0
6969 1 1 0 17.70307273901719 17.3314715671459 -1.610964616566712 0 0 0
9812 1 2 0 19.318971484329502 17.046206882393946 -2.091131884028906 0 0 0
9858 1 2 0 17.726909407880587 18.903686138178678 -2.0737943958971905 0 0 0
9811 1 2 0 22.50750238998485 17.22660291857075 -2.072931990615954 0 0 0
6940 1 1 0 24.11984123155808 17.468273455520027 -1.603590528530521 0 0 0
9815 1 2 0 24.267786552403205 19.081095892766665 -1.9206976405319856 0 0 0
9814 1 2 0 28.334641542229413 17.141572661450944 -2.088168671150453 0 0 0
6975 1 1 0 29.60237597470397 18.140772530131596 -1.6442982308083949 0 0 0
9865 1 2 0 31.10069507919227 17.604037363071182 -2.132088259626642 0 0 0
6974 1 1 0 32.4842191720409 16.885565637032286 -1.5835774164957614 0 0 0
9866 1 2 0 34.03247550197541 16.891749905494677 -2.1646056980506603 0 0 0
9873 1 2 0 36.17136218857981 18.158454835633687 -2.1860700040759644 0 0 0
9826 1 2 0 42.892114593934465 17.808451795410885 -2.1030843142209275 0 0 0
6947 1 1 0 46.25897599180222 17.494713194233743 -1.6333310059482469 0 0 0
9827 1 2 0 46.93264970400454 18.91142829820368 -2.1402822099307 0 0 0
9829 1 2 0 52.620209972075116 16.95305504081399 -2.1445593125290303 0 0 0
6985 1 1 0 53.94523148229962 17.772015292016295 -1.5997151021447973 0 0 0
9880 1 2 0 55.50734231389402 17.566786132551186 -2.0981351897515035 0 0 0
6984 1 1 0 57.03577675177473 17.153262944608162 -1.6190280124183585 0 0 0
9881 1 2 0 58.390309047130756 18.03176772897671 -1.9945778355100447 0 0 0
6989 1 1 0 59.44565736924291 19.270981300584832 -1.608807497638063 0 0 0
9886 1 2 0 61.14405912581507 19.01544512258483 -2.032580372180482 0 0 0
6988 1 1 0 62.882109397170005 18.9207542999258 -1.621693355375209 0 0 0
9837 1 2 0 64.08555678415168 17.59884030673384 -1.9810702439704213 0 0 0
9838 1 2 0 69.56799993283602 17.611762643042375 -2.06279314074493 0 0 0
6990 1 1 0 70.07590889856006 19.168733132516053 -1.6336945562368381 0 0 0
9845 1 2 0 77.25894153680512 18.223238132354656 -2.1583001194737936 0 0 0
9775 1 2 0 84.08644859274222 18.018477549163492 -2.0736554612490496 0 0 0
6997 1 1 0 88.95312988929298 17.990164120052466 -1.625904960489858 0 0 0
9900 1 2 0 87.7702170980198 18.98876133245418 -2.129179810842226 0 0 0
9899 1 2 0 90.38148993883303 18.5895330578167 -2.092251553844207 0 0 0
6998 1 1 0 91.91410493674229 18.750074861600176 -1.612951892645578 0 0 0
9850 1 2 0 92.76144759848025 17.445246211912504 -2.0233780560851926 0 0 0
6965 1 1 0 96.52941300076188 18.071853137253157 -1.6491302984144651 0 0 0
9849 1 2 0 95.30732285603324 17.082055644706465 -2.117271190894044 0 0 0
9851 1 2 0 97.93600481347465 17.456336393670085 -2.1740389404443987 0 0 0
9307 1 2 0 100.55021743338371 17.67904105802139 -2.124365627071709 0 0 0
6619 1 1 0 101.8729568332141 18.53077759794888 -1.6177818483338697 0 0 0
9332 1 2 0 6.0611844831872865 20.680694667368954 -2.140602951050034 0 0 0
9334 1 2 0 11.7979160267865 19.519916801707748 -2.0505491740990074 0 0 0
6662 1 1 0 12.156115682835653 21.032323434180896 -1.616542331523524 0 0 0
9373 1 2 0 13.704194570807942 21.260149643077188 -2.089870083369397 0 0 0
9912 1 2 0 16.56275310206236 21.2099819984362 -2.1023424599095364 0 0 0
7005 1 1 0 17.94308247898712 20.455210335136307 -1.6308180919447348 0 0 0
9911 1 2 0 19.389597016619366 21.067270298807077 -2.1536043815030723 0 0 0
9909 1 2 0 22.245463767445717 20.98498107558613 -2.0951071977177276 0 0 0
7006 1 1 0 20.827582097776983 21.70323151459086 -1.629107275302821 0 0 0
7004 1 1 0 23.786149542254545 20.622769412905978 -1.6088548475046085 0 0 0
9910 1 2 0 24.94691106052362 21.680443366753185 -2.115205004828995 0 0 0
9867 1 2 0 29.399846207096562 19.721387205599925 -2.110477654979197 0 0 0
7009 1 1 0 29.14271602154491 21.284841819438583 -1.6251946989447765 0 0 0
9877 1 2 0 36.35334787798397 20.793961291131502 -2.129600310272743 0 0 0
6981 1 1 0 36.97764715458036 19.404939200300912 -1.6171505980920182 0 0 0
9876 1 2 0 38.54953247224505 19.30595920072112 -1.9600309459077287 0 0 0
6982 1 1 0 39.92402441669849 20.05968682064748 -1.597888342917126 0 0 0
9874 1 2 0 41.369449379470765 19.69141044983823 -2.1999405526320643 0 0 0
9878 1 2 0 39.708166929610414 21.58275248582214 -2.047657589165324 0 0 0
6980 1 1 0 42.8491716770311 19.361072782359678 -1.6349424705558313 0 0 0
9875 1 2 0 44.043397479224964 20.358374305003824 -2.1241989870338847 0 0 0
7014 1 1 0 45.00465114770454 21.57801802121817 -1.6092417228157205 0 0 0
7013 1 1 0 47.776399078662386 20.226932960883758 -1.5973959260534862 0 0 0
9923 1 2 0 46.595396881215144 21.32607847247491 -1.8454859578740666 0 0 0
9924 1 2 0 49.300399685660665 20.681463325823938 -2.0721404578176847 0 0 0
7017 1 1 0 50.561328158448156 21.68844145299405 -1.6594986358093795 0 0 0
7016 1 1 0 53.68958549734359 20.88385449348008 -1.6037304186499002 0 0 0
9882 1 2 0 53.540323576989756 19.30164798264915 -1.952784936960193 0 0 0
9927 1 2 0 52.15899930390864 21.410241288715653 -2.113568629134017 0 0 0
9928 1 2 0 55.2924868980687 21.22752366016794 -2.07937965957218 0 0 0
9888 1 2 0 58.22903980347782 20.412216962940402 -2.0507445912574123 0 0 0
7057 1 1 0 56.935308258450306 21.445427394323307 -1.6462380449150424 0 0 0
9887 1 2 0 63.481701480601764 20.487758706302785 -1.9508203067082057 0 0 0
9933 1 2 0 65.98009958677738 21.497417170495428 -2.023160548154835 0 0 0
7020 1 1 0 67.62299384276861 21.37915624986214 -1.6186181755142135 0 0 0
9890 1 2 0 68.74639827663249 20.166399908202226 -1.9920937060923085 0 0 0
9889 1 2 0 71.68808896401012 19.62886169954721 -2.0777468026390062 0 0 0
6991 1 1 0 73.29116468732514 20.076330066289923 -1.6067139836693587 0 0 0
9891 1 2 0 74.87283752293041 19.60214272012967 -2.046806351132904 0 0 0
9892 1 2 0 73.76456752593589 21.608465307273864 -2.0451534828790496 0 0 0
6992 1 1 0 76.51086872268542 19.604420324884494 -1.6385899849640213 0 0 0
9893 1 2 0 77.53756267337447 20.859014147379398 -2.0652187302095832 0 0 0
7027 1 1 0 83.95743409252455 19.622854437165845 -1.5965261881763135 0 0 0
9944 1 2 0 82.80525487888052 20.74317433220288 -2.0654699036660173 0 0 0
9945 1 2 0 85.40496447928031 20.317174674710113 -1.929514747268731 0 0 0
7031 1 1 0 87.00394365976928 20.333731852880607 -1.6160134940216735 0 0 0
9950 1 2 0 87.8455694953473 21.645780150605955 -2.1230199374018377 0 0 0
9901 1 2 0 92.64020944777111 20.08250100766887 -2.1694804970929606 0 0 0
7037 1 1 0 93.25247748435498 21.47046475504058 -1.6120689736575708 0 0 0
9959 1 2 0 94.81622328236645 21.660571190848525 -1.9493636670930008 0 0 0
9852 1 2 0 96.46201858201452 19.63002979052792 -2.1447364473876793 0 0 0
7038 1 1 0 96.31837515217074 21.165530894577948 -1.6071932548958363 0 0 0
6660 1 1 0 6.585265877528377 22.148160862446776 -1.6203686690752013 0 0 0
9370 1 2 0 5.592298732561277 23.378510002636332 -2.0591603522550024 0 0 0
6661 1 1 0 9.647292970208369 22.83826667239274 -1.6178144497452414 0 0 0
9369 1 2 0 8.14571913382711 22.371483397162496 -2.078336708636559 0 0 0
9371 1 2 0 10.932254202748979 21.9761755070175 -2.16809249412061 0 0 0
9968 1 2 0 15.026461213258399 23.402676153522275 -2.1663325020341366 0 0 0
7043 1 1 0 15.144044785375655 21.877463478270645 -1.6282307188752099 0 0 0
9913 1 2 0 20.880614534524167 23.285624842488456 -2.048929187465303 0 0 0
7010 1 1 0 26.247555259273906 22.570059610459857 -1.632591442590991 0 0 0
9919 1 2 0 26.169397568939125 24.142089370310103 -2.142974367998583 0 0 0
9917 1 2 0 27.63886556703828 21.80003611432619 -2.0438357003451237 0 0 0
9918 1 2 0 30.19777494818674 22.450454568714168 -2.141062948617066 0 0 0
7050 1 1 0 31.090923242572185 23.719588930218674 -1.5998765147291425 0 0 0
9979 1 2 0 32.59442880068854 23.951185511646454 -2.1698633816769783 0 0 0
7049 1 1 0 36.19092386363336 22.299155223932676 -1.6020436560148057 0 0 0
9977 1 2 0 34.98871889654088 23.171825614916763 -2.170086849750089 0 0 0
9978 1 2 0 37.557433840995216 23.086004262561026 -1.9062832710510598 0 0 0
7054 1 1 0 39.12158844669733 22.996516070994392 -1.5878829463933815 0 0 0
9985 1 2 0 40.09537366060873 24.103241172136393 -2.1985403016691465 0 0 0
9925 1 2 0 44.52962829302632 23.023045365604336 -2.180607825581881 0 0 0
9929 1 2 0 49.99618365319198 23.16161843329329 -2.1452201191245015 0 0 0
9989 1 2 0 57.45503238371294 22.960290741394516 -2.1065913539243817 0 0 0
7021 1 1 0 64.37743871752062 21.89919307890618 -1.6207172176512419 0 0 0
9935 1 2 0 63.7381958098754 23.465757591090526 -2.0747119363564495 0 0 0
9934 1 2 0 68.33105532459335 22.756278400419898 -2.1592319036523167 0 0 0
7025 1 1 0 68.99414949225911 24.137670740025147 -1.6116243040129294 0 0 0
9939 1 2 0 73.09039936314325 24.067143918705135 -2.1783643457996886 0 0 0
7024 1 1 0 74.27653458625876 23.11297841522848 -1.622538769249114 0 0 0
9940 1 2 0 75.69262996055754 23.799644568138934 -2.1196809449578495 0 0 0
7028 1 1 0 78.73534947845357 21.9311602779439 -1.596994966317873 0 0 0
9946 1 2 0 80.31764299525314 21.86250282404336 -2.116284053024629 0 0 0
9947 1 2 0 78.23964953068621 23.469654401551185 -1.861867526524693 0 0 0
7029 1 1 0 81.902117839634 22.08725168057012 -1.6481645918904675 0 0 0
9948 1 2 0 82.53407699866591 23.564459736020908 -2.136755970165647 0 0 0
10009 1 2 0 87.34040999322936 24.192502355806006 -2.1699493939832446 0 0 0
7070 1 1 0 88.42597716884323 23.102461536781174 -1.6524618791710939 0 0 0
10008 1 2 0 89.91001302274155 23.59799827587317 -2.150353621764348 0 0 0
9960 1 2 0 92.36149731452132 22.6921171144631 -2.1632055388376425 0 0 0
7071 1 1 0 91.43627236552743 23.904763585877852 -1.629475979994717 0 0 0
9961 1 2 0 97.31062248143921 22.348697216411495 -2.1348103436364125 0 0 0
7074 1 1 0 97.95510962404099 23.76201687101248 -1.6244061558388365 0 0 0
9378 1 2 0 99.50086517279273 23.92760055545958 -2.13538680354575 0 0 0
9306 1 2 0 101.9821833048964 22.634421925883245 -2.158248629110086 0 0 0
6665 1 1 0 101.04457352542636 23.84848381225265 -1.5986944422722034 0 0 0
9408 1 2 0 5.600130682258787 26.038956824552866 -2.0493035210534662 0 0 0
9372 1 2 0 9.899404782925659 24.382157288120975 -2.041608042702285 0 0 0
6707 1 1 0 9.821243668302863 25.9445120515177 -1.6123000234530591 0 0 0
9439 1 2 0 8.359041567343612 26.483237676326482 -2.1084495518311757 0 0 0
9441 1 2 0 11.206750348817401 26.644531851067374 -2.1415200040698315 0 0 0
10018 1 2 0 13.799632815919244 25.82504975114392 -2.0836603955929007 0 0 0
7076 1 1 0 15.07704061130985 24.927268118094897 -1.6292883212679017 0 0 0
10017 1 2 0 16.523745629105502 25.45035120122151 -2.136876137028415 0 0 0
10015 1 2 0 19.250870316163557 25.46993376761772 -2.1784610642626214 0 0 0
7077 1 1 0 17.8828950087348 26.17487400286752 -1.6408821730290013 0 0 0
7075 1 1 0 20.65358889861588 24.843408258568893 -1.6169642303727871 0 0 0
10016 1 2 0 21.88090475846125 25.80643393743911 -2.0807204420726957 0 0 0
10023 1 2 0 24.450494289980266 26.30090596028067 -2.15725883221069 0 0 0
7080 1 1 0 25.88087727918597 25.688098208150603 -1.6374959057763296 0 0 0
9980 1 2 0 30.69990969491763 25.274291761006676 -1.952696698439429 0 0 0
7051 1 1 0 34.06370436748341 24.37077799567849 -1.6504594014898613 0 0 0
9981 1 2 0 34.81091004336503 25.7238534292491 -2.1335731033381 0 0 0
7056 1 1 0 41.086527369820026 25.23002142264292 -1.6263264185969928 0 0 0
9988 1 2 0 40.149190739507475 26.471995171552138 -2.042852452402067 0 0 0
7055 1 1 0 44.01716899003353 24.453818902024583 -1.6180043284105308 0 0 0
9986 1 2 0 42.581672686487295 24.96689832027893 -2.164023600170335 0 0 0
9987 1 2 0 45.00960351563327 25.674156652517734 -1.9343608677732222 0 0 0
10032 1 2 0 48.80062905600085 25.909340221841763 -2.0395810485021806 0 0 0
7086 1 1 0 49.83956184158249 24.704937585628745 -1.623656572688042 0 0 0
10033 1 2 0 51.14175921710397 25.49388711185609 -2.1423448102312705 0 0 0
7090 1 1 0 52.194475056999245 26.56093501808394 -1.5992615280198152 0 0 0
10037 1 2 0 53.65004343139257 26.146558827746972 -2.1301452180333773 0 0 0
9994 1 2 0 56.13758877293016 25.024695770387513 -1.9395226615651855 0 0 0
7089 1 1 0 55.163658592136606 26.243616979040112 -1.6154559072046546 0 0 0
7060 1 1 0 57.65020596126655 24.53180347554356 -1.5839723378790396 0 0 0
9993 1 2 0 57.860918154834486 26.160809377436003 -2.0944638463772303 0 0 0
7061 1 1 0 63.17601877870777 25.042092140262092 -1.601104756974246 0 0 0
9995 1 2 0 62.08153353248479 26.292089308150885 -2.105450639624019 0 0 0
9996 1 2 0 64.09603167971717 26.364854007681977 -2.0497661473661757 0 0 0