
15576 atoms
0 bonds
0 angles
0 dihedrals
0 impropers

2 atom types
0 bond types
0 angle types
0 dihedral types
0 improper types

0 204.34565012313072 xlo xhi
0 177.39085670700135 ylo yhi
-100 100 zlo zhi

Atoms

1 1 1 0 136.91983791650654 33.17043677296965 1.65
2 1 1 0 135.32728345087628 30.262712209211966 1.65
3 1 1 0 139.85774157555508 32.62177583459006 1.65
4 1 1 0 140.12236693716216 28.967967096470225 1.65
5 1 1 0 137.2268549347395 27.497441873290263 1.65
6 1 1 0 135.73323238123288 36.209663390867114 1.65
7 1 1 0 132.34874220828166 30.165133838319935 1.65
8 1 1 0 130.83649425128684 33.02940922544215 1.65
9 1 1 0 132.6284299586078 36.166214214231644 1.65
10 1 1 0 141.79934146026145 34.847799781629135 1.65
11 1 1 0 138.13831970947513 38.940542464951214 1.65
12 1 1 0 141.26652512945518 38.12733979409282 1.65
13 1 1 0 147.10844281992553 29.893161750955183 1.65
14 1 1 0 150.20327800415572 31.207873166631188 1.65
15 1 1 0 147.34061341406598 26.820600416253487 1.65
16 1 1 0 150.33352140636612 26.400362226594513 1.65
17 1 1 0 151.94318461220163 28.626968934966538 1.65
18 1 1 0 145.0225458261959 30.80227694394126 1.65
19 1 1 0 144.89235231554474 34.073549945195644 1.65
20 1 1 0 142.1941603325197 27.922718042254914 1.65
21 1 1 0 151.49904970849533 33.727395142037466 1.65
22 1 1 0 146.81711907488437 36.68514488493738 1.65
23 1 1 0 149.79192934936808 36.52199520396464 1.65
24 1 1 0 107.60438186641001 41.96778603821581 1.65
25 1 1 0 104.15104588201538 42.50023161175978 1.65
26 1 1 0 108.8776496566456 39.0079952886023 1.65
27 1 1 0 107.02339904322457 36.6331000453175 1.65
28 1 1 0 103.75683922962595 36.88605751582397 1.65
29 1 1 0 102.15775385865236 39.79339833265275 1.65
30 1 1 0 110.19349715102511 43.935250025749724 1.65
31 1 1 0 110.0365776423598 46.312443181676976 1.65
32 1 1 0 107.7253325055481 48.24537794304642 1.65
33 1 1 0 105.16129274444731 48.070917589327934 1.65
34 1 1 0 103.19986750556514 45.44035034825662 1.65
35 1 1 0 114.55483195776824 41.421004866936116 1.65
36 1 1 0 113.92750253828052 43.68412240752414 1.65
37 1 1 0 112.09409436074843 38.71234173554819 1.65
38 1 1 0 108.10533382141111 4.086656514846135 1.65
39 1 1 0 110.6091086352304 6.380494271520865 1.65
40 1 1 0 105.29933761644128 5.878075799476084 1.65
41 1 1 0 105.94578911098526 9.06448382885733 1.65
42 1 1 0 109.33703059605011 9.521311661422354 1.65
43 1 1 0 109.06964021786612 0.6762608078909746 1.65
44 1 1 0 114.2345397998696 2.0847439208379357 1.65
45 1 1 0 113.30410579241293 5.4902630304301745 1.65
46 1 1 0 112.50384903914208 176.9554361619748 1.65
47 1 1 0 102.38290379751983 5.028854452409966 1.65
48 1 1 0 101.75282247422935 2.18109748528949 1.65
49 1 1 0 107.36453303295613 176.32457565003065 1.65
50 1 1 0 103.97469379042609 177.23452282896275 1.65
51 1 1 0 118.68820412305584 6.077781057293688 1.65
52 1 1 0 119.5107633444969 2.9286351021669086 1.65
53 1 1 0 117.59382031337731 1.0383682529150984 1.65
54 1 1 0 115.84082708447959 7.593033317634115 1.65
55 1 1 0 124.06665341829323 5.175785030489358 1.65
56 1 1 0 122.89626595525465 2.3026414543297506 1.65
57 1 1 0 121.53341962460486 7.35066936108864 1.65
58 1 1 0 114.68387895629037 174.3601076724024 1.65
59 1 1 0 118.08939775552834 175.2800168659022 1.65
60 1 1 0 129.48136470310482 4.252774740828595 1.65
61 1 1 0 127.02725381620564 6.094833997561454 1.65
62 1 1 0 133.2173737841049 5.650412901859376 1.65
63 1 1 0 133.62724402808445 8.83861824102002 1.65
64 1 1 0 127.29984127897522 9.68234647712718 1.65
65 1 1 0 130.16382240985394 11.028492559554964 1.65
66 1 1 0 129.00623326835972 0.9772399262652383 1.65
67 1 1 0 123.73909762954209 176.37791040129503 1.65
68 1 1 0 126.29790839787297 175.80079507858116 1.65
69 1 1 0 135.2842431741205 3.52834995289897 1.65
70 1 1 0 134.04516988052154 0.3748054683147055 1.65
71 1 1 0 131.50316905576085 176.6121903097131 1.65
72 1 1 0 138.31930677629828 3.2205171131463213 1.65
73 1 1 0 141.36417520658574 4.303846629880434 1.65
74 1 1 0 142.04681591099822 6.878477120074904 1.65
75 1 1 0 139.7744229968719 9.676872385936623 1.65
76 1 1 0 136.4665889342612 10.598280074655445 1.65
77 1 1 0 139.08854886932474 177.3748903884124 1.65
78 1 1 0 136.6365972768577 175.86999420971233 1.65
79 1 1 0 144.0518762027078 1.5752582745524015 1.65
80 1 1 0 142.1221219256026 176.4418452757536 1.65
81 1 1 0 149.5525728001241 3.843259108616799 1.65
82 1 1 0 153.07228888913608 3.1044828310880237 1.65
83 1 1 0 148.9047965868337 7.295747848172575 1.65
84 1 1 0 155.66604792982918 5.736012436501216 1.65
85 1 1 0 154.93980387819454 8.678734952182385 1.65
86 1 1 0 151.69826862421104 9.499694086324968 1.65
87 1 1 0 147.24948564115996 1.2062484205564972 1.65
88 1 1 0 154.05397732217472 177.12523481873546 1.65
89 1 1 0 151.80221291397433 174.58583351476202 1.65
90 1 1 0 148.51743732197156 175.31892754605562 1.65
91 1 1 0 145.8095274350281 8.313307699750602 1.65
92 1 1 0 158.5440875511414 4.782003056945168 1.65
93 1 1 0 159.10988919126504 1.5203180606745477 1.65
94 1 1 0 157.21353800299147 176.49507942787804 1.65
95 1 1 0 161.07018858808553 6.597378061751249 1.65
96 1 1 0 161.97106440344493 10.036465398547538 1.65
97 1 1 0 157.02711572069947 11.202553836254223 1.65
98 1 1 0 160.30435090494828 12.104321614009425 1.65
99 1 1 0 163.5835158801905 3.862209463488493 1.65
100 1 1 0 162.40875080223975 0.8500109114087673 1.65
101 1 1 0 168.98083538456973 2.9764208037447877 1.65
102 1 1 0 165.97449288349952 4.5634324473426116 1.65
103 1 1 0 171.19606636127745 5.710579859390714 1.65
104 1 1 0 169.62023240330905 8.2404183562926 1.65
105 1 1 0 166.63224085257076 7.991941454718535 1.65
106 1 1 0 170.125834169349 0.39166780016804154 1.65
107 1 1 0 166.14406453718067 173.59059251945257 1.65
108 1 1 0 168.9320494850055 174.46401318366208 1.65
109 1 1 0 163.15674164250316 175.483916934478 1.65
110 1 1 0 155.15507232231914 45.39314688148988 1.65
111 1 1 0 157.07221455345277 42.24516267944472 1.65
112 1 1 0 151.93234727362557 45.16076828480146 1.65
113 1 1 0 155.02718505701222 37.423358436273666 1.65
114 1 1 0 156.99641420011127 38.444902258758745 1.65
115 1 1 0 151.77064364266852 39.18791136857262 1.65
116 1 1 0 150.42335842293053 41.99242841759275 1.65
117 1 1 0 156.82190798946843 48.60321182759071 1.65
118 1 1 0 160.1538755717083 42.263777356008404 1.65
119 1 1 0 161.6343650329388 44.84653376964545 1.65
120 1 1 0 161.9822589027245 48.2227347590879 1.65
121 1 1 0 160.5864748792664 49.54695835539861 1.65
122 1 1 0 149.09711912584456 48.02618172954786 1.65
123 1 1 0 149.39735367443276 51.08912672551712 1.65
124 1 1 0 155.66753018908713 51.53203191441202 1.65
125 1 1 0 152.56654493706594 52.470970126968574 1.65
126 1 1 0 174.2174541979436 5.636701153527911 1.65
127 1 1 0 175.2888559904477 8.717834097579544 1.65
128 1 1 0 170.265458944525 11.454019187574186 1.65
129 1 1 0 172.9126946949975 12.005313634723933 1.65
130 1 1 0 175.86078321915718 2.6006381147427224 1.65
131 1 1 0 173.9843941672703 0.08976381702878156 1.65
132 1 1 0 180.39871224709287 6.469745970536308 1.65
133 1 1 0 179.45755586722913 3.1474393221608907 1.65
134 1 1 0 177.87334139152503 9.004077707169774 1.65
135 1 1 0 186.97946797520996 4.172883710077793 1.65
136 1 1 0 190.40523354245965 3.605288254436926 1.65
137 1 1 0 185.92553419930442 7.4443493422147595 1.65
138 1 1 0 192.4713663325113 6.106344631672085 1.65
139 1 1 0 191.2429688569085 9.406191356101424 1.65
140 1 1 0 188.12290229095132 10.17660061100323 1.65
141 1 1 0 184.95908105930715 1.5782606312898653 1.65
142 1 1 0 191.65736020661123 0.4524652973113663 1.65
143 1 1 0 189.46590205172862 175.31127360271083 1.65
144 1 1 0 186.19338847167424 175.86947348104846 1.65
145 1 1 0 183.01960179019534 8.29931845145846 1.65
146 1 1 0 181.37919919196526 1.015195415468252 1.65
147 1 1 0 195.83612569611677 5.400193305525928 1.65
148 1 1 0 197.16975296204077 2.2459355656308655 1.65
149 1 1 0 195.0571202625869 177.1901206416528 1.65
150 1 1 0 197.89845732792654 7.845913815079827 1.65
151 1 1 0 196.70357248012138 10.998254808932517 1.65
152 1 1 0 193.4128433727088 11.852381023807954 1.65
153 1 1 0 202.6052006894974 4.091259653598373 1.65
154 1 1 0 201.22622640703628 7.211643965290733 1.65
155 1 1 0 200.61105887631166 1.5712717634924025 1.65
156 1 1 0 1.5372159778249974 3.6859860215525537 1.65
157 1 1 0 3.6278564448881623 6.495006618660355 1.65
158 1 1 0 2.3922484829109543 9.405629491115535 1.65
159 1 1 0 203.2682838565174 9.716993205700094 1.65
160 1 1 0 3.2260330519444835 0.6436667265662619 1.65
161 1 1 0 1.3349048973735762 175.3369998886398 1.65
162 1 1 0 201.9975961331991 175.8593312935201 1.65
163 1 1 0 6.793786656728658 6.17810927152656 1.65
164 1 1 0 4.383340749469372 11.866539341492096 1.65
165 1 1 0 7.8562188181818495 12.906547281423153 1.65
166 1 1 0 9.069337578880655 8.488787409419054 1.65
167 1 1 0 9.656407301308745 11.68237640661114 1.65
168 1 1 0 8.03867168375609 3.4010590080226435 1.65
169 1 1 0 6.561558546035098 0.6756370601701494 1.65
170 1 1 0 103.67543843370962 11.148333295765301 1.65
171 1 1 0 99.52399561037603 7.48614756290216 1.65
172 1 1 0 100.17007875202184 10.41921837687625 1.65
173 1 1 0 121.73567387249176 10.079032872566266 1.65
174 1 1 0 116.00325655057064 10.862994627912697 1.65
175 1 1 0 119.0528878370338 12.076105879049894 1.65
176 1 1 0 124.54149512894969 11.491661021532707 1.65
177 1 1 0 145.2249864210771 11.790359267614804 1.65
178 1 1 0 141.88887835305255 12.441710227865736 1.65
179 1 1 0 152.30530666406185 12.888491036446936 1.65
180 1 1 0 146.98587564258662 14.107112191087133 1.65
181 1 1 0 150.46924648134294 14.639493632012256 1.65
182 1 1 0 165.14213966462117 10.729805807660705 1.65
183 1 1 0 182.1272582819008 11.714777299582973 1.65
184 1 1 0 179.04773391208687 12.161953889289316 1.65
185 1 1 0 186.9696199621755 13.813370993028112 1.65
186 1 1 0 183.87990836223406 14.496578572364157 1.65
187 1 1 0 202.1391113760233 12.746667552541874 1.65
188 1 1 0 198.90216907873702 13.393659305985201 1.65
189 1 1 0 110.52568217471006 12.137413480750427 1.65
190 1 1 0 106.91150226865301 15.721954991868188 1.65
191 1 1 0 104.3806158592868 13.948001138904942 1.65
192 1 1 0 109.19042794452034 15.191080528959182 1.65
193 1 1 0 113.64464215497865 12.820437005569339 1.65
194 1 1 0 130.3976997527506 14.324876372828193 1.65
195 1 1 0 123.18013353778764 14.819624325809523 1.65
196 1 1 0 127.91788547668123 16.405624932210838 1.65
197 1 1 0 124.45909180258508 16.611928507524553 1.65
198 1 1 0 135.8121808664219 13.912002196445899 1.65
199 1 1 0 133.20671330314184 15.4487241760837 1.65
200 1 1 0 140.7070318479435 15.581731910368948 1.65
201 1 1 0 137.93816842392357 16.13061619023029 1.65
202 1 1 0 155.6206951376231 13.885901673575344 1.65
203 1 1 0 160.94800396203235 15.712786099449556 1.65
204 1 1 0 157.77612656521154 16.616505092331284 1.65
205 1 1 0 167.30235748945674 13.23465757463041 1.65
206 1 1 0 177.4663877379333 14.982711442385437 1.65
207 1 1 0 173.9158339219213 15.112314797410281 1.65
208 1 1 0 192.4074829698363 15.076051327552614 1.65
209 1 1 0 189.08432612526022 16.266632041870963 1.65
210 1 1 0 0.04479618432478971 15.269954321390651 1.65
211 1 1 0 3.1650609313773153 14.701189824925432 1.65
212 1 1 0 119.68447293035136 15.128066804359541 1.65
213 1 1 0 114.16992399377183 16.44405250504928 1.65
214 1 1 0 117.16012348268139 17.538571052702288 1.65
215 1 1 0 145.6971344539229 17.452436192763372 1.65
216 1 1 0 142.75439872730433 18.275704951794253 1.65
217 1 1 0 151.27990245909058 17.904564222020877 1.65
218 1 1 0 148.15604659951975 19.38749952051858 1.65
219 1 1 0 166.70155448162393 16.343730432998733 1.65
220 1 1 0 163.44442299579802 17.696829595660056 1.65
221 1 1 0 178.9474352365972 17.89104977202973 1.65
222 1 1 0 182.281431491084 17.852093491714797 1.65
223 1 1 0 197.85101654707543 16.515176024758134 1.65
224 1 1 0 194.64705954558733 17.343441831450107 1.65
225 1 1 0 203.31446241591752 18.222026776938893 1.65
226 1 1 0 200.01197495282372 18.820256726863047 1.65
227 1 1 0 105.74459831275264 18.887534525116756 1.65
228 1 1 0 102.74152020799364 18.71461527583537 1.65
229 1 1 0 101.89960684361338 15.936178665125796 1.65
230 1 1 0 111.57303310258881 17.92212575573261 1.65
231 1 1 0 128.57771263530998 19.87891672804699 1.65
232 1 1 0 123.29101869180025 19.752492458607453 1.65
233 1 1 0 126.12508201356935 21.586451478100397 1.65
234 1 1 0 133.75521684527627 18.605927187596894 1.65
235 1 1 0 131.60603045351377 20.955371180177536 1.65
236 1 1 0 136.64775345072252 19.049027534845965 1.65
237 1 1 0 141.34932454123245 21.618369484309284 1.65
238 1 1 0 138.01154268867057 21.84280778749966 1.65
239 1 1 0 153.94353032554451 19.766342579932697 1.65
240 1 1 0 157.01806265886447 19.28877734122162 1.65
241 1 1 0 172.36487352441492 18.065927193378343 1.65
242 1 1 0 169.20344828202187 18.762348840790313 1.65
243 1 1 0 120.61575341494473 42.71322041848137 1.65
244 1 1 0 120.76142929889835 46.05069976094349 1.65
245 1 1 0 126.96481948564966 46.17209214564579 1.65
246 1 1 0 123.53193949368084 47.48837004874452 1.65
247 1 1 0 127.9792835897388 43.55368334644802 1.65
248 1 1 0 122.98966071305979 40.627260179306745 1.65
249 1 1 0 125.94032572834841 40.916065825415764 1.65
250 1 1 0 117.65282349801322 40.91117272875319 1.65
251 1 1 0 115.49021126198792 46.50916410444957 1.65
252 1 1 0 117.91454429488728 48.106733255482915 1.65
253 1 1 0 128.90883774176456 48.96376695256607 1.65
254 1 1 0 126.65883935882181 51.59447151349748 1.65
255 1 1 0 123.54889479918702 50.8614357084704 1.65
256 1 1 0 177.11729621279463 20.87444776978736 1.65
257 1 1 0 174.0852883166244 20.919721836111123 1.65
258 1 1 0 188.4690750819954 19.512901503673564 1.65
259 1 1 0 183.29768647363582 21.16956687037321 1.65
260 1 1 0 185.9241268789219 21.705417534686518 1.65
261 1 1 0 193.7943429737939 20.656043642849717 1.65
262 1 1 0 190.9395153547781 21.634922600754823 1.65
263 1 1 0 5.397754998366205 16.891178931820278 1.65
264 1 1 0 0.7999131678300426 20.55684986241855 1.65
265 1 1 0 3.967370385151976 21.321364225030838 1.65
266 1 1 0 5.778257923147846 19.983539609731483 1.65
267 1 1 0 8.413311961456083 16.04893480135298 1.65
268 1 1 0 117.91892074427668 20.866278181403633 1.65
269 1 1 0 110.9248288840796 20.7106552315147 1.65
270 1 1 0 112.42728932070241 23.52045556137744 1.65
271 1 1 0 115.50306584542054 23.823261464156513 1.65
272 1 1 0 120.98286306312824 21.650377951981998 1.65
273 1 1 0 148.2695756326551 22.059264354164746 1.65
274 1 1 0 142.9204173225917 24.37876085162059 1.65
275 1 1 0 145.9809734104084 24.18575841860524 1.65
276 1 1 0 153.62337740243845 22.8752803415443 1.65
277 1 1 0 151.07327856911988 23.68526681727865 1.65
278 1 1 0 163.19591012170355 21.2303950353993 1.65
279 1 1 0 158.42550009739077 22.907627195963713 1.65
280 1 1 0 160.62665472381005 23.730179459981024 1.65
281 1 1 0 168.59943883464965 22.37820158327624 1.65
282 1 1 0 165.84903216015724 23.4931486152239 1.65
283 1 1 0 178.2965763480647 24.10826125884688 1.65
284 1 1 0 181.14297035441908 24.44233663974767 1.65
285 1 1 0 199.07748640224244 21.90710310078045 1.65
286 1 1 0 196.06381142470076 22.914624210075143 1.65
287 1 1 0 203.9997243637071 23.424672038690474 1.65
288 1 1 0 201.23413493808258 24.176695327128222 1.65
289 1 1 0 107.37531977011076 21.14518953798984 1.65
290 1 1 0 125.52204399639182 24.532215477232704 1.65
291 1 1 0 122.12535349192207 24.69507328864792 1.65
292 1 1 0 132.63709590365994 24.186054209419396 1.65
293 1 1 0 127.38796936698581 26.97584312506296 1.65
294 1 1 0 130.73533806243432 26.955527242325182 1.65
295 1 1 0 136.1500715333705 24.630390469492447 1.65
296 1 1 0 156.05527353412424 25.091448309456304 1.65
297 1 1 0 171.65036591642567 23.68494828130634 1.65
298 1 1 0 190.05787896904332 25.01037315802839 1.65
299 1 1 0 186.98933828751115 25.264552067604928 1.65
300 1 1 0 195.3107762157171 26.23869710057133 1.65
301 1 1 0 192.1596713790755 27.35556709061947 1.65
302 1 1 0 1.928277163223701 25.63838139902875 1.65
303 1 1 0 4.708268310638742 24.604893970519 1.65
304 1 1 0 106.39908456853841 24.002423181711045 1.65
305 1 1 0 103.54569510063459 25.004168195566244 1.65
306 1 1 0 100.23886566150655 20.784749849190092 1.65
307 1 1 0 100.6684659264219 23.50624208756562 1.65
308 1 1 0 109.59051805014717 25.807740753827456 1.65
309 1 1 0 117.02543377464121 26.9351439259734 1.65
310 1 1 0 120.58377910229117 27.022855979886444 1.65
311 1 1 0 161.63118304435255 27.356928977025756 1.65
312 1 1 0 164.92694128444043 26.925949350227278 1.65
313 1 1 0 172.47421744595863 26.589678361701935 1.65
314 1 1 0 176.08841998142742 27.058265405566242 1.65
315 1 1 0 185.4265950808622 27.90099451678377 1.65
316 1 1 0 182.20666755305618 27.614629753239818 1.65
317 1 1 0 200.50207750889962 27.165146632184243 1.65
318 1 1 0 197.59239376407587 28.219627296332654 1.65
319 1 1 0 1.4771545021516204 28.559875282684036 1.65
320 1 1 0 202.81654427345205 29.334617227401782 1.65
321 1 1 0 109.34190726687535 28.409507695871138 1.65
322 1 1 0 115.53848085259574 29.780409846427997 1.65
323 1 1 0 112.18687769918054 30.24717385062255 1.65
324 1 1 0 122.41297357613661 29.855652285755983 1.65
325 1 1 0 125.8204733363615 29.971497242347713 1.65
326 1 1 0 155.11483790664118 28.12804149356268 1.65
327 1 1 0 160.03901384566666 30.601017026743044 1.65
328 1 1 0 156.7661861537877 30.89303822852588 1.65
329 1 1 0 170.22093750329637 29.591458565569624 1.65
330 1 1 0 166.77791673724764 29.723695235427915 1.65
331 1 1 0 177.22586850441292 30.156876527144856 1.65
332 1 1 0 172.03114147467969 33.06409496269354 1.65
333 1 1 0 175.42186994032747 33.16092588040446 1.65
334 1 1 0 186.64010518535957 30.823556564735725 1.65
335 1 1 0 191.8286459460751 31.013699290173513 1.65
336 1 1 0 189.4821580664155 32.34547890172625 1.65
337 1 1 0 5.118005594696764 29.255362837651468 1.65
338 1 1 0 7.238795052559777 26.52264204996251 1.65
339 1 1 0 105.32128440788664 29.748844347197213 1.65
340 1 1 0 102.71650572325461 28.148822419008724 1.65
341 1 1 0 120.9599752664177 32.476981866552514 1.65
342 1 1 0 117.64382787052679 32.48945148113757 1.65
343 1 1 0 127.65559407481518 32.81545674673215 1.65
344 1 1 0 165.13373373390155 32.98399170499509 1.65
345 1 1 0 161.69058908240842 33.43033386951174 1.65
346 1 1 0 180.4977220696873 30.379165493917643 1.65
347 1 1 0 181.99505998620168 33.32750922873244 1.65
348 1 1 0 184.91751557406795 33.485535536006566 1.65
349 1 1 0 197.5065033349185 31.454761528208298 1.65
350 1 1 0 194.8938603535594 33.131963532001016 1.65
351 1 1 0 201.0753887692943 32.0995142232391 1.65
352 1 1 0 108.13777921356788 33.88559638690457 1.65
353 1 1 0 105.12997056379886 32.15019997017483 1.65
354 1 1 0 111.17406348996083 33.32190691867836 1.65
355 1 1 0 126.18948143892469 35.52501716718419 1.65
356 1 1 0 122.90136239075208 35.30238724359628 1.65
357 1 1 0 154.89030456368775 33.91148764533602 1.65
358 1 1 0 131.96350223923227 49.39616711590899 1.65
359 1 1 0 131.46532776000882 42.08567149254769 1.65
360 1 1 0 133.84751169711748 43.279699989163255 1.65
361 1 1 0 134.04073074804117 46.808486111144376 1.65
362 1 1 0 133.1612003198549 52.58748903431995 1.65
363 1 1 0 127.435599768309 54.61987439824762 1.65
364 1 1 0 130.8832962318744 55.18049175572717 1.65
365 1 1 0 166.73265104122254 35.691058056052064 1.65
366 1 1 0 170.18703801595194 35.9033979836088 1.65
367 1 1 0 177.2074068465052 36.15042578711901 1.65
368 1 1 0 180.50874332710504 36.09472016867419 1.65
369 1 1 0 189.43291240426493 35.93797005354755 1.65
370 1 1 0 186.6361193617802 36.3789302611015 1.65
371 1 1 0 4.097668713431097 32.839979688805535 1.65
372 1 1 0 5.634548231767841 30.39808439457888 1.65
373 1 1 0 202.32986817150686 34.37021283905137 1.65
374 1 1 0 1.8293451267422798 34.74269869240814 1.65
375 1 1 0 12.04712338312776 7.443969706919934 1.65
376 1 1 0 11.456450449740643 4.314465764943723 1.65
377 1 1 0 7.2568622727797045 33.6517014041538 1.65
378 1 1 0 8.793741791116448 31.209806109927143 1.65
379 1 1 0 16.44041258100908 3.36938080986484 1.65
380 1 1 0 13.19663901946527 2.888183879810246 1.65
381 1 1 0 18.14837137960924 5.579093166824934 1.65
382 1 1 0 17.172221433148852 8.978169123345504 1.65
383 1 1 0 14.349424602668881 9.748374974217231 1.65
384 1 1 0 15.895700396085765 0.3728140304989396 1.65
385 1 1 0 12.651926834541953 177.28247380744568 1.65
386 1 1 0 21.660187197867725 6.147839366031971 1.65
387 1 1 0 23.26222491097482 4.206989461642124 1.65
388 1 1 0 21.13576258212253 0.50181015863849 1.65
389 1 1 0 17.308443697444705 176.2098844605641 1.65
390 1 1 0 22.436286448679272 9.334801943535842 1.65
391 1 1 0 19.45919346828454 10.914096069899172 1.65
392 1 1 0 102.32175613281498 34.13909592131722 1.65
393 1 1 0 28.318109243030815 2.461147078218016 1.65
394 1 1 0 26.64622848616145 5.1274174138906705 1.65
395 1 1 0 26.6857852509161 177.1096358570034 1.65
396 1 1 0 22.88744216519445 176.07072688967241 1.65
397 1 1 0 113.27612802372035 35.77375702403718 1.65
398 1 1 0 116.39428925087111 35.408065590690946 1.65
399 1 1 0 31.75314818916867 3.5358702011839096 1.65
400 1 1 0 32.06310930640476 6.918496359083358 1.65
401 1 1 0 28.85727947877088 7.7263038096146595 1.65
402 1 1 0 34.040862080073204 1.8527682348438077 1.65
403 1 1 0 33.62686717684642 175.71132758878232 1.65
404 1 1 0 30.80515901467133 173.51903942836262 1.65
405 1 1 0 27.76406063940181 174.2174224258321 1.65
406 1 1 0 37.85384106890594 2.5000278430928353 1.65
407 1 1 0 39.21341354274976 4.78019440135255 1.65
408 1 1 0 37.73727973466138 8.05739842966014 1.65
409 1 1 0 34.68877470276619 9.076043537876016 1.65
410 1 1 0 39.378320754450094 176.70426513569785 1.65
411 1 1 0 36.68529593315509 174.38317105952734 1.65
412 1 1 0 127.73995693559547 38.255045001206355 1.65
413 1 1 0 130.99800527880694 38.68228956954382 1.65
414 1 1 0 42.99152676972943 5.270303643749565 1.65
415 1 1 0 43.44156449078301 8.538722143265067 1.65
416 1 1 0 40.46634737378317 10.114613652283321 1.65
417 1 1 0 45.35810910214293 3.452661342985101 1.65
418 1 1 0 44.91070017668893 0.0377556694863288 1.65
419 1 1 0 42.24408045145282 175.55411709831358 1.65
420 1 1 0 48.27263805546256 5.093404980653693 1.65
421 1 1 0 50.792538054508825 7.150128917518508 1.65
422 1 1 0 50.95038848940254 9.13308900326323 1.65
423 1 1 0 46.96845671869781 10.445704425243841 1.65
424 1 1 0 50.423831773968246 3.498406990753877 1.65
425 1 1 0 50.59840652557992 0.12580841188667957 1.65
426 1 1 0 47.999803881620224 175.69675743528907 1.65
427 1 1 0 52.94373177301451 5.555130927618691 1.65
428 1 1 0 55.605107145569036 4.5157067779358915 1.65
429 1 1 0 55.992708198730625 1.6738875894147427 1.65
430 1 1 0 53.50590757778777 176.73156986723168 1.65
431 1 1 0 160.13677211323088 36.537310798385306 1.65
432 1 1 0 58.60299688213983 6.689252561443872 1.65
433 1 1 0 58.077388960255334 9.677798589884192 1.65
434 1 1 0 54.50160158448075 11.021642000400005 1.65
435 1 1 0 61.58921212652649 5.308754521319511 1.65
436 1 1 0 61.55228292138597 2.047018500201535 1.65
437 1 1 0 58.953668730160885 0.5856973518047486 1.65
438 1 1 0 72.93418978776307 2.3731665294483895 1.65
439 1 1 0 72.85422675184304 5.767193933459436 1.65
440 1 1 0 69.91632044243325 0.36475390121941853 1.65
441 1 1 0 65.13339358286949 5.5036104775364825 1.65
442 1 1 0 66.1837331046009 7.69966377729475 1.65
443 1 1 0 66.83062822031218 2.0351500099267854 1.65
444 1 1 0 69.95948026295898 7.718739797111459 1.65
445 1 1 0 76.30601750302456 0.865229628789757 1.65
446 1 1 0 79.69220225996534 5.665448844125161 1.65
447 1 1 0 76.48249008896995 7.357226784562481 1.65
448 1 1 0 79.43576663809992 2.567479092363481 1.65
449 1 1 0 73.38418086683882 172.2822812091125 1.65
450 1 1 0 70.46158883067282 174.08558065979096 1.65
451 1 1 0 76.4508555416873 172.92301383953168 1.65
452 1 1 0 77.67477560156935 175.20315198846643 1.65
453 1 1 0 83.08532050388693 6.819223622920913 1.65
454 1 1 0 83.76392324362796 9.711307333731982 1.65
455 1 1 0 76.68569820491511 10.095720821671765 1.65
456 1 1 0 79.11481120085419 12.217527564619864 1.65
457 1 1 0 81.860561171231 12.158463157081764 1.65
458 1 1 0 86.01748699969 4.671970985384268 1.65
459 1 1 0 85.72107617124422 1.2919875147347342 1.65
460 1 1 0 82.53247405357574 0.3412704005096945 1.65
461 1 1 0 88.74091439135354 6.537236677740883 1.65
462 1 1 0 87.01191222986331 11.595404914094154 1.65
463 1 1 0 89.05673688178584 10.568586895639697 1.65
464 1 1 0 92.62887676482616 2.8314828741100615 1.65
465 1 1 0 91.28518566376452 5.71715378095567 1.65
466 1 1 0 91.82760964022354 0.06588732990210788 1.65
467 1 1 0 88.58684321639322 176.46359464077855 1.65
468 1 1 0 164.95862684609298 38.63783855844183 1.65
469 1 1 0 161.80589256959445 39.03774913625842 1.65
470 1 1 0 96.05053322750607 3.466038923396521 1.65
471 1 1 0 96.60150149950515 6.569610425210294 1.65
472 1 1 0 93.85638290668305 8.168522802788175 1.65
473 1 1 0 171.3502285634565 38.97842452767702 1.65
474 1 1 0 176.6771991136188 39.6338261336054 1.65
475 1 1 0 174.3315700037275 40.72731560771178 1.65
476 1 1 0 98.34294601508647 1.5348190939679056 1.65
477 1 1 0 94.57466667013273 175.12785298113826 1.65
478 1 1 0 97.66834658231576 175.96222869591762 1.65
479 1 1 0 13.168915943419599 12.78559902968239 1.65
480 1 1 0 194.68658767409485 36.92770231934848 1.65
481 1 1 0 200.23027367083142 37.12347078440734 1.65
482 1 1 0 196.97836134342037 38.51254210615696 1.65
483 1 1 0 191.57212760445998 38.40192922934227 1.65
484 1 1 0 27.981140087984407 10.897128853831358 1.65
485 1 1 0 24.774454430756155 11.547953778951197 1.65
486 1 1 0 34.04302814717077 12.453913178437986 1.65
487 1 1 0 30.541223360022876 13.467191043862025 1.65
488 1 1 0 121.50117287213425 37.74360943150943 1.65
489 1 1 0 118.31024712814417 37.836818164019036 1.65
490 1 1 0 137.2551328445268 41.76210791468081 1.65
491 1 1 0 63.87273642696084 11.384360836327886 1.65
492 1 1 0 60.45450857307412 12.202868015585201 1.65
493 1 1 0 64.32177999694242 0.2570988575035531 1.65
494 1 1 0 70.95991124109891 11.007454423742784 1.65
495 1 1 0 65.72417656815179 13.496250683382234 1.65
496 1 1 0 69.03560422393178 13.100268250980422 1.65
497 1 1 0 144.49424942558718 39.301735393256834 1.65
498 1 1 0 74.05786584592813 11.794402597200046 1.65
499 1 1 0 75.17867268347024 15.257752901834897 1.65
500 1 1 0 77.91118284139823 15.593605906663116 1.65
501 1 1 0 169.18178997646945 41.379139300494415 1.65
502 1 1 0 166.24457523383535 41.25089325881595 1.65
503 1 1 0 182.27412174434727 39.16791975235156 1.65
504 1 1 0 180.0942463220449 41.57094234198431 1.65
505 1 1 0 92.55206074916946 11.28532432292884 1.65
506 1 1 0 97.84048285321921 12.824168863535203 1.65
507 1 1 0 94.08856573932582 13.28789221817347 1.65
508 1 1 0 185.47904219115617 39.29410353750473 1.65
509 1 1 0 2.7710659582621986 37.74252185879265 1.65
510 1 1 0 201.85951936399792 39.5221620299027 1.65
511 1 1 0 0.5551845730625473 39.76872725093124 1.65
512 1 1 0 14.80994720982908 15.25172108774909 1.65
513 1 1 0 19.95632847301355 13.894335785122093 1.65
514 1 1 0 18.16815986045479 15.821802277606539 1.65
515 1 1 0 6.235670217337882 38.74947770080354 1.65
516 1 1 0 8.453142945166569 36.5613762497673 1.65
517 1 1 0 41.39291914860041 13.663633727230785 1.65
518 1 1 0 36.35413178215048 14.787999475540369 1.65
519 1 1 0 39.7509671909299 15.464668074468083 1.65
520 1 1 0 47.129245672852434 12.800579159749494 1.65
521 1 1 0 44.528925219754875 14.442616952718188 1.65
522 1 1 0 146.1217744803329 41.943102761304225 1.65
523 1 1 0 144.74520230120953 43.76160203803955 1.65
524 1 1 0 141.89259239330678 44.691908423422326 1.65
525 1 1 0 139.1582534113498 44.52057899725259 1.65
526 1 1 0 49.13044612577994 15.031617790711207 1.65
527 1 1 0 46.53012567268238 16.6736555836799 1.65
528 1 1 0 54.34920647395994 14.40987234054658 1.65
529 1 1 0 51.75014824395136 16.319463954597683 1.65
530 1 1 0 83.45835473054083 14.99888868014583 1.65
531 1 1 0 86.60166591783518 14.848451480151502 1.65
532 1 1 0 169.2321779160629 44.87322504321451 1.65
533 1 1 0 174.03863018817628 44.25300652393723 1.65
534 1 1 0 171.10767668749872 45.998201186622566 1.65
535 1 1 0 187.37329632854323 42.19396859167534 1.65
536 1 1 0 190.66958869936232 41.74275449106683 1.65
537 1 1 0 13.441598861420477 18.202156053967514 1.65
538 1 1 0 10.52210277787068 18.525967837358344 1.65
539 1 1 0 197.14952585611877 42.02686204220341 1.65
540 1 1 0 200.15457246941585 42.34023083204021 1.65
541 1 1 0 23.4403426038741 14.586512825066768 1.65
542 1 1 0 30.122960106097384 16.913521497213356 1.65
543 1 1 0 24.448959010031434 17.56990475999749 1.65
544 1 1 0 27.346649457093452 18.694031989460044 1.65
545 1 1 0 58.0859161903237 15.267041120369166 1.65
546 1 1 0 146.21155809602612 46.67634113907447 1.65
547 1 1 0 143.35894818812338 47.606647524457244 1.65
548 1 1 0 65.19598129283679 16.66239084862805 1.65
549 1 1 0 58.78646240117881 17.991236626570036 1.65
550 1 1 0 61.55693698978211 19.936094916483093 1.65
551 1 1 0 63.746423357498706 19.55953239627073 1.65
552 1 1 0 70.14316162822853 16.17822821223177 1.65
553 1 1 0 67.9629738504328 18.030836643812293 1.65
554 1 1 0 73.18827548293775 17.54876468962898 1.65
555 1 1 0 164.57233041856728 44.2335602502696 1.65
556 1 1 0 82.59308551036249 18.148017312676657 1.65
557 1 1 0 79.79166359159669 18.683670131655845 1.65
558 1 1 0 180.88447261228208 44.375976633602896 1.65
559 1 1 0 186.67150253361797 45.768023013054304 1.65
560 1 1 0 184.03589818880022 46.47752064589956 1.65
561 1 1 0 98.86483351923358 15.54146130864511 1.65
562 1 1 0 92.79375910689359 16.50852054491837 1.65
563 1 1 0 95.22309825436818 19.178058578963935 1.65
564 1 1 0 97.54225555281477 18.67472269732894 1.65
565 1 1 0 192.46671551944118 44.313266651757154 1.65
566 1 1 0 195.53142991352846 44.38400680418966 1.65
567 1 1 0 1.6301832622012142 42.449212612923084 1.65
568 1 1 0 4.513495846460438 43.47032664132797 1.65
569 1 1 0 6.903101416397459 41.796797121347026 1.65
570 1 1 0 201.6892257600502 44.710016589521004 1.65
571 1 1 0 0.12352122064018545 44.572433149375335 1.65
572 1 1 0 15.953470677605766 20.54786786578705 1.65
573 1 1 0 18.964800179527046 19.05669781932087 1.65
574 1 1 0 113.06960949666063 47.926645241053976 1.65