LAMMPS data file via write_data, version 23 Jun 2022, timestep = 9634

15852 atoms
2 atom types

4.567087548515825 201.59590973356015 xlo xhi
5.580790131905745 173.398095064195 ylo yhi
-100 100 zlo zhi

Masses

1 28.085
2 15.999

Atoms # full

6760 1 1 0 5.564950633681472 7.3297095407688495 -1.6255540793212102 0 0 0
6766 1 1 0 8.772517380524919 7.261748000221842 -1.6151450690982885 0 0 0
9515 1 2 0 7.165958528001092 7.051486788211614 -2.067669407909008 0 0 0
9524 1 2 0 10.212178749523337 6.577745826776008 -2.1399233498918613 0 0 0
6901 1 1 0 11.661540851979083 5.904761474846761 -1.6410042748946814 0 1 0
9721 1 2 0 13.246635575177338 6.138649654792368 -2.1406565576047916 0 0 0
6900 1 1 0 14.824249914014308 6.389654850043855 -1.6142936999635615 0 0 0
9719 1 2 0 15.170950367378236 7.924797905200778 -2.0608225484211693 0 0 0
9729 1 2 0 18.85493898202551 6.617627499251224 -2.120292949430137 0 0 0
6905 1 1 0 19.741270350714558 7.941349175997183 -1.6148942572607983 0 0 0
9740 1 2 0 23.600029011554494 7.374735805314584 -2.0724739367707636 0 0 0
6916 1 1 0 24.38408563608845 5.908627731402595 -1.6035300457638229 0 0 0
9746 1 2 0 25.859939497589984 6.4772374417186045 -2.038122869878618 0 0 0
6915 1 1 0 27.217650146212524 7.273739686208628 -1.6241385490644171 0 0 0
9747 1 2 0 28.42144048574118 6.246666167149369 -2.096169123886014 0 0 0
9756 1 2 0 30.999190266039797 6.01136736858465 -2.0513356899891306 0 0 0
6921 1 1 0 31.83137924749091 7.334844701815116 -1.5993259085461886 0 0 0
9757 1 2 0 33.31942011365681 7.688731981967299 -2.1451957136456694 0 0 0
9771 1 2 0 35.8134555547666 7.111573240397989 -2.1626043431914357 0 0 0
6933 1 1 0 36.709361938333124 5.848726136399852 -1.6488461060408892 0 0 0
9774 1 2 0 38.231087059722576 6.266017710836089 -2.0926694757061988 0 0 0
6932 1 1 0 39.56852081436604 7.071622572925251 -1.5979768017105358 0 0 0
9775 1 2 0 40.90355007228737 6.2637225407401065 -2.022797576530839 0 0 0
9779 1 2 0 43.518298109092136 5.862764451318416 -2.03249036592017 0 0 0
6935 1 1 0 44.55165770223713 7.060870800324256 -1.6058927228981896 0 0 0
9780 1 2 0 46.08630925828786 7.107946337467715 -2.167714359082647 0 0 0
6942 1 1 0 47.61641913532691 6.981977597982463 -1.6084068585227587 0 0 0
9789 1 2 0 48.94002088141079 7.775923820823632 -2.134825529496778 0 0 0
9790 1 2 0 51.79444943807893 8.036293119546256 -2.1291087662106607 0 0 0
6948 1 1 0 53.36491895864915 7.94202219341757 -1.6176203936841649 0 0 0
9800 1 2 0 54.20902981558185 6.564326241116428 -1.935730636086464 0 0 0
9810 1 2 0 58.96459735515087 7.082728501197184 -2.0487818931928454 0 0 0
6955 1 1 0 59.657752274615085 5.661918102104755 -1.6154741180022993 0 1 0
9813 1 2 0 61.24502892651286 5.687320283249712 -2.1061878517503647 0 1 0
6961 1 1 0 62.81688245397066 5.981923244700645 -1.6437394885644676 0 1 0
9820 1 2 0 63.40128781545293 7.488705093747811 -2.052743459878345 0 0 0
6965 1 1 0 69.01786383367033 7.539838910098788 -1.6106392768345095 0 0 0
9828 1 2 0 68.33343136980274 5.992726268577183 -2.051277805006831 0 0 0
9829 1 2 0 70.56475302904762 7.030021255108625 -1.953390341046588 0 0 0
6972 1 1 0 72.18330786880026 7.076797551132828 -1.6209113984519035 0 0 0
9841 1 2 0 73.11375326749297 5.715279892748771 -2.0925326971249913 0 0 0
6976 1 1 0 76.51139662015242 6.741081102728118 -1.5679085500798686 0 0 0
9848 1 2 0 77.91314069993138 7.370514086142814 -2.13326206327511 0 0 0
9860 1 2 0 80.51004797550011 7.7676763143874705 -2.1231986245167116 0 0 0
6986 1 1 0 82.00394793293306 7.381084205390175 -1.6190242379137167 0 0 0
9864 1 2 0 81.93774470875877 5.778177579822742 -2.1228699164270934 0 0 0
9868 1 2 0 84.86328914562944 6.5150547785507085 -1.9993378707965939 0 0 0
6989 1 1 0 85.48979490899244 7.978870505853367 -1.6057958731137654 0 0 0
9869 1 2 0 87.01467380268798 7.8920315553469855 -2.159170863821723 0 0 0
6993 1 1 0 88.5466885928666 8.025914721972686 -1.641790409212958 0 0 0
9876 1 2 0 89.49395543501257 6.7538850881483246 -2.046612334367792 0 0 0
9882 1 2 0 93.43710824371614 5.698792863922467 -2.0889410224732625 0 0 0
6996 1 1 0 93.83533470072918 7.184252772433714 -1.6094459271611843 0 0 0
9880 1 2 0 95.34258583354526 7.4167475062467005 -2.1739993504485713 0 0 0
6997 1 1 0 96.85467141011907 7.560402449809695 -1.5993634522638909 0 0 0
9884 1 2 0 97.96576372915301 6.474901134334486 -2.046051196405403 0 0 0
7002 1 1 0 99.34974522747835 5.720471158770553 -1.6164354900247062 0 0 0
9355 1 2 0 100.61024714786025 6.707291591820962 -2.0967750972748274 0 0 0
6663 1 1 0 101.50143547142967 8.038127209297796 -1.6348730128307558 0 0 0
9512 1 2 0 5.086641652980819 8.856868590465313 -2.032086102957535 0 0 0
6759 1 1 0 4.901551036621427 10.437594100978995 -1.6255333567827075 0 0 0
9522 1 2 0 9.30856445561342 8.737944765350441 -2.0880694971079796 0 0 0
6765 1 1 0 9.980199411584733 10.132382588525426 -1.5898074865067855 0 0 0
9717 1 2 0 13.997036007606932 10.366103478633084 -2.160344092549635 0 0 0
6899 1 1 0 15.236061416513126 9.481172421915439 -1.6001976900386758 0 0 0
9720 1 2 0 16.60338812292337 10.24734243499678 -2.0156907944053954 0 0 0
9725 1 2 0 19.030725308320935 9.344859078855261 -2.0707002438979085 0 0 0
9730 1 2 0 21.30449346283824 8.261061977668696 -2.0610550068880182 0 0 0
6911 1 1 0 22.805159745976205 8.841579173437843 -1.62349529726406 0 0 0
9743 1 2 0 27.19610151376362 8.86270469935704 -2.1255077123402364 0 0 0
6913 1 1 0 27.510651055267665 10.414910481048345 -1.601351446944419 0 0 0
6917 1 1 0 30.58682128316197 10.15435935457995 -1.592827297135417 0 0 0
9750 1 2 0 30.906280547796783 8.615885423360405 -1.9581069491194287 0 0 0
6930 1 1 0 34.766510892737095 8.248949494620977 -1.647448815032083 0 0 0
9763 1 2 0 35.06670819531531 9.784744034907968 -2.1361077547464875 0 0 0
9772 1 2 0 39.95442625976668 8.573434700051532 -2.1184067830828064 0 0 0
6931 1 1 0 40.60269417778717 10.000187938413289 -1.6434477640927712 0 0 0
9773 1 2 0 42.15775612415112 10.318103147424925 -2.1044557912262776 0 0 0
6934 1 1 0 43.719230366347446 10.077348944907087 -1.6049052614495547 0 0 0
9777 1 2 0 43.87342969624341 8.493215805225482 -1.9488989648863855 0 0 0
9787 1 2 0 49.871842959103695 10.015742400051142 -2.1635534004075585 0 0 0
6941 1 1 0 50.30064420141373 8.535345438258496 -1.642182233493731 0 0 0
9801 1 2 0 54.34924953881158 9.18274011540885 -2.061554055251711 0 0 0
6952 1 1 0 55.75440511475154 9.900948748776768 -1.6077323884281078 0 0 0
9808 1 2 0 57.04254294312966 9.027803136028316 -2.096243108839047 0 0 0
6954 1 1 0 58.54269361059775 8.602932056875753 -1.6309760016004593 0 0 0
9811 1 2 0 59.57811539474139 9.764617343101355 -2.145024021257017 0 0 0
9816 1 2 0 62.09447108750892 9.731748586333193 -1.972784821908228 0 0 0
6960 1 1 0 63.53795143629703 9.0862036281853 -1.58843911184638 0 0 0
9821 1 2 0 64.51923005905006 10.329692830782886 -2.11411232805937 0 0 0
9826 1 2 0 68.80552491143017 9.241103924899983 -2.048426849373203 0 0 0
9838 1 2 0 72.41235011473775 8.67731603401275 -2.0917589188980386 0 0 0
6971 1 1 0 72.55677354759091 10.289090391272682 -1.594428391711511 0 0 0
9840 1 2 0 74.12153755311735 10.24538730633832 -2.033936144545728 0 0 0
6975 1 1 0 75.53587951847679 9.66614389235512 -1.5689594197779713 0 0 0
9845 1 2 0 75.59851721661322 8.065386309353048 -1.7980678526968958 0 0 0
9856 1 2 0 78.99679650873598 9.959256873823389 -2.0090451639131484 0 0 0
6984 1 1 0 79.10748931623316 8.372555898821147 -1.6329389734837159 0 0 0
9861 1 2 0 82.62782437394765 8.86522940287131 -2.1194330387155826 0 0 0
6985 1 1 0 83.37935868784213 10.292377589080626 -1.5998024364199315 0 0 0
9863 1 2 0 84.73817588995847 9.400831886131634 -1.9300053524704737 0 0 0
9873 1 2 0 88.9172270623987 9.52538927370386 -2.1711150036597457 0 0 0
6998 1 1 0 92.4251151831728 9.910985361543432 -1.6080218443457084 0 0 0
9881 1 2 0 92.76337627403764 8.359058618404797 -1.9453061120066892 0 0 0
9883 1 2 0 97.38725188195171 9.021762679599204 -2.0098373254450506 0 0 0
9353 1 2 0 100.92348115145109 9.493422188451849 -2.136876618745311 0 0 0
9347 1 2 0 103.00650201454789 8.50450109632047 -2.153606745618217 0 0 0
9513 1 2 0 6.204030926578875 11.285072354312012 -2.123536938654449 0 0 0
6762 1 1 0 7.539001145234915 12.04858536385323 -1.6014826573651062 0 0 0
9518 1 2 0 8.885448153207031 11.247930039563137 -1.9833659005403979 0 0 0
9523 1 2 0 11.405345277643837 10.68545778669547 -2.162352370292378 0 0 0
6897 1 1 0 12.809482024091702 11.35025447711557 -1.6554787562069624 0 0 0
9716 1 2 0 13.122589197734566 12.880357832640396 -2.13952899709045 0 0 0
6902 1 1 0 18.129408157517254 10.621406856837803 -1.6097478924274577 0 0 0
9724 1 2 0 18.52525853767341 12.120474189582186 -2.1539753002552438 0 0 0
9737 1 2 0 23.02410680431045 10.526794509955952 -2.050385719125922 0 0 0
6910 1 1 0 23.201321101378134 12.214797324600111 -1.6224624184120036 0 0 0
9739 1 2 0 24.668044845886584 12.887344647306982 -2.0556650723645236 0 0 0
9742 1 2 0 26.923049077239053 11.8882981276401 -2.090434829178188 0 0 0
9744 1 2 0 29.08066679691633 10.573579817654558 -1.988406849164075 0 0 0
9749 1 2 0 31.674413609143322 11.21965636220514 -2.1518414108998662 0 0 0
6918 1 1 0 32.48539162579372 12.524636072001783 -1.6186295986330033 0 0 0
9752 1 2 0 34.08959983560259 12.319386546288166 -1.9103138652603586 0 0 0
6925 1 1 0 35.36294952481967 11.31724486844113 -1.6164069731154709 0 0 0
9762 1 2 0 36.82802298410841 11.843522025617256 -2.145160554285615 0 0 0
6926 1 1 0 38.36013620807081 12.139253156073423 -1.638130295102854 0 0 0
9765 1 2 0 39.47035153638768 11.058766336664357 -2.1251717738915037 0 0 0
9778 1 2 0 45.07806913824143 10.87334616427984 -2.1216888003796925 0 0 0
6937 1 1 0 46.27228116217624 11.915170521362686 -1.6104836621184684 0 0 0
9783 1 2 0 47.86899644802299 11.860088464162672 -2.1266433294403697 0 0 0
6940 1 1 0 49.438624063180704 11.500527062961543 -1.644608286726187 0 0 0
9788 1 2 0 50.91840771086033 12.139731805605845 -2.093709229466533 0 0 0
6945 1 1 0 52.46912631240558 12.59911545949766 -1.5887166684353415 0 0 0
9796 1 2 0 54.0342469053021 12.902011056958262 -2.112972696712729 0 0 0
9807 1 2 0 56.03279221008456 11.485938658522539 -1.9171854430016029 0 0 0
6957 1 1 0 60.82664540148762 10.673671265156239 -1.597607450725672 0 0 0
9815 1 2 0 61.04048936028031 12.220323943270573 -2.096262773209073 0 0 0
6962 1 1 0 65.39208772363267 11.670061426533282 -1.6322587820313825 0 0 0
9824 1 2 0 66.9230511080038 11.312936273675707 -2.142000363262804 0 0 0
6964 1 1 0 68.45949302569886 10.930701441502478 -1.6485181360511147 0 0 0
9827 1 2 0 69.16960577131394 12.482734358263498 -2.0109561100288937 0 0 0
9839 1 2 0 72.50341492463657 11.891433147712938 -2.1068703222193625 0 0 0
9846 1 2 0 76.74554544344774 10.584380882399492 -2.1125315060491188 0 0 0
6981 1 1 0 78.12405168347051 11.291480479424557 -1.6168590399904519 0 0 0
9855 1 2 0 78.10300779587988 12.828393655363064 -2.1757016488889844 0 0 0
9862 1 2 0 83.31687589672045 11.907970747800634 -2.115358504716679 0 0 0
6992 1 1 0 89.52616555424501 10.933979750352744 -1.6123021606647294 0 0 0
9874 1 2 0 88.999441188601 12.409123087552521 -2.0655244539502338 0 0 0
9875 1 2 0 91.04160059913661 10.596819608376299 -2.085008290325328 0 0 0
9885 1 2 0 93.60030497116135 10.85502910619466 -2.180318493451241 0 0 0
7000 1 1 0 94.73070578605449 11.853232871332423 -1.6214765683703276 0 0 0
6999 1 1 0 97.44748432041035 10.58012318237472 -1.6116147753793173 0 0 0
9886 1 2 0 96.17185254485672 11.385369089405783 -2.1625632014146814 0 0 0
6662 1 1 0 100.41788882114899 10.945393556809758 -1.5965242557489454 0 0 0
9354 1 2 0 98.89067670702867 11.09150810426997 -2.0760741196539843 0 0 0
9351 1 2 0 101.09754637865355 12.386320127523806 -1.8652004726981157 0 0 0
9517 1 2 0 7.865038413636405 13.533152787421223 -2.171986782644103 0 0 0
6764 1 1 0 8.351349164862002 14.984528090486824 -1.6316658560515866 0 0 0
6898 1 1 0 13.516225722379346 14.38461341637419 -1.6348361515624907 0 0 0
9608 1 2 0 12.39175340089095 15.447249351658598 -2.112462850779614 0 0 0
9718 1 2 0 14.914167469123472 15.030974742240586 -2.177908548392135 0 0 0
6903 1 1 0 18.666816076648765 13.666807214526294 -1.6144630393834225 0 0 0
9726 1 2 0 17.463173489305444 14.648914410545835 -2.100230455018471 0 0 0
9727 1 2 0 20.044587231847117 14.425990381050742 -2.0293636531397077 0 0 0
6912 1 1 0 21.499779173838224 15.055830056365767 -1.6037716001258904 0 0 0
9738 1 2 0 22.34597048159381 13.636461501761552 -2.0835858206852764 0 0 0
6914 1 1 0 26.216340966937405 13.321348610953168 -1.6279927173937514 0 0 0
9745 1 2 0 26.905735439410524 14.805590739366245 -2.08718029767403 0 0 0
6919 1 1 0 30.946718761159808 15.268370545529155 -1.6193180936003089 0 0 0
9751 1 2 0 31.556632023563353 13.802650967568944 -2.0863108387546623 0 0 0
9764 1 2 0 39.0411628070083 13.522349963608585 -2.1548013072941985 0 0 0
6927 1 1 0 39.43220913573778 15.015305489582175 -1.6381906331932155 0 0 0
6938 1 1 0 45.18407214346447 14.892446808782996 -1.6122070358990963 0 0 0
9784 1 2 0 43.710080560040666 15.44277171868845 -2.1299390677122974 0 0 0
9782 1 2 0 45.47152547253306 13.314771133221411 -1.9357711489984097 0 0 0
9797 1 2 0 49.43605141656798 15.210426795689175 -1.8539970103020038 0 0 0
9795 1 2 0 51.848387684446145 14.0199201932237 -2.0811728101312896 0 0 0
6947 1 1 0 51.044938174354016 15.314768649716397 -1.5939218048918593 0 0 0
6953 1 1 0 55.62630411442965 13.050128072112333 -1.6025838904737648 0 0 0
9809 1 2 0 56.80469865451201 14.170721907104873 -2.0814529612684787 0 0 0
9817 1 2 0 59.65511182379741 14.434357915909368 -2.1480128482013106 0 0 0
6959 1 1 0 58.18922266061287 15.051378681752205 -1.6455295716110954 0 0 0
6958 1 1 0 61.106634406920854 13.799943312253998 -1.6320293076995296 0 0 0
9818 1 2 0 62.56270199557821 14.522683148236318 -2.033133346908588 0 0 0
6963 1 1 0 64.18549106211155 14.712932895674017 -1.6296106855383472 0 0 0
9823 1 2 0 64.90202920429964 13.233401247315125 -2.012491674200304 0 0 0
6974 1 1 0 69.60220275111885 14.11760412806668 -1.5802391827211006 0 0 0
9842 1 2 0 71.23381949311202 14.172727985794223 -1.808849523437446 0 0 0
6973 1 1 0 72.69703411344545 13.46872584309737 -1.5947680832568567 0 0 0
9843 1 2 0 73.90027021275569 14.506426504336163 -2.1213577454652865 0 0 0
9857 1 2 0 76.56083000566134 15.15017852832138 -2.044864922960524 0 0 0
6982 1 1 0 77.95804130740238 14.372793532280804 -1.630809730008134 0 0 0
9858 1 2 0 79.36225936829301 15.073857230879321 -2.104852131808816 0 0 0
6987 1 1 0 83.37828765605715 13.5468827560319 -1.6408327133262646 0 0 0
9865 1 2 0 82.1187840285497 14.577155767284049 -2.0960046302643685 0 0 0
9866 1 2 0 84.8137295005838 14.308909602157948 -2.0379660506606228 0 0 0
6995 1 1 0 86.10086823747106 15.285260707455896 -1.6158633351862464 0 0 0
9877 1 2 0 87.57308390690245 14.7142639783024 -2.14477963620009 0 0 0
6994 1 1 0 88.98170585086926 13.993567001929636 -1.6442660116866328 0 0 0
9878 1 2 0 90.42615834056693 14.64830460464022 -2.1219965258913294 0 0 0
9887 1 2 0 94.40460368334921 13.38158334672179 -1.9624385660137027 0 0 0
7020 1 1 0 94.76491086166232 14.919289746325093 -1.5959059627003207 0 0 0
9613 1 2 0 96.3437522903373 14.90578339205774 -2.1288630370484354 0 0 0
6826 1 1 0 97.91679052625072 15.045993721927497 -1.5987656876740393 0 0 0
9352 1 2 0 99.37372428298323 14.447861170987421 -2.1388020361052513 0 0 0
6661 1 1 0 100.87507550229755 13.980392255349848 -1.5981041040814223 0 0 0
9349 1 2 0 102.34270198996074 14.584076845403867 -2.031139093885851 0 0 0
6763 1 1 0 5.79716287760535 16.61331149255826 -1.5851587124073088 0 0 0
9508 1 2 0 4.647805020101524 15.48502308670628 -1.7467550481626737 1 0 0
9519 1 2 0 7.20963123113693 16.026410488469306 -2.0861222885558606 0 0 0
6823 1 1 0 11.117356379803763 16.31670530314045 -1.6355384507641741 0 0 0
9521 1 2 0 9.797053143178427 15.512918080202958 -2.1177326049440417 0 0 0
9607 1 2 0 11.13583780770538 17.853904470156724 -2.177791076125251 0 0 0
6904 1 1 0 16.30361458356298 15.691289064850093 -1.6287444864893232 0 0 0
9728 1 2 0 16.64808813537502 17.23755226699784 -2.055350261350592 0 0 0
9741 1 2 0 21.389543406174397 16.729879219343697 -2.012443164850318 0 0 0
6920 1 1 0 27.833370150105317 16.170227965119164 -1.6488291071001568 0 0 0
9755 1 2 0 27.337023956018484 17.76724050093401 -2.0965677038474664 0 0 0
9753 1 2 0 29.42497410927749 15.80348815695645 -2.068740315556567 0 0 0
9754 1 2 0 32.35761910021593 15.955812163255034 -2.155582384641258 0 0 0
9768 1 2 0 35.23861795429238 16.788852479169364 -2.1510431122551124 0 0 0
6929 1 1 0 33.678348138177405 16.79289503648917 -1.5947937869641087 0 0 0
6928 1 1 0 36.79394086330733 16.65752400202804 -1.58703117913713 0 0 0
9766 1 2 0 38.00059811111041 15.672280666095872 -2.102045698464756 0 0 0
9769 1 2 0 37.908998660305464 17.840254977007458 -1.8322649642766766 0 0 0
9767 1 2 0 40.87408425674244 15.632563523184901 -2.1518678262732593 0 0 0
6939 1 1 0 42.33426221846803 16.236546021119345 -1.647576541362186 0 0 0
9786 1 2 0 42.45807713115266 17.811041163249293 -2.113531266853342 0 0 0
9785 1 2 0 46.571716618859085 15.607342672926457 -2.142719985692163 0 0 0
6946 1 1 0 48.05003371046421 16.05292784765017 -1.5963001078124917 0 0 0
9798 1 2 0 48.876977531567455 17.34913968862727 -2.1658118738913084 0 0 0
9799 1 2 0 52.00004476349458 16.51171315763389 -2.166596965490966 0 0 0
7048 1 1 0 52.818659121322945 17.814238609373266 -1.598234792111377 0 0 0
9819 1 2 0 58.33932418169991 16.66183922391748 -2.0855782797839404 0 0 0
9825 1 2 0 64.99434603972279 16.16879643507827 -2.082416739826576 0 0 0
7053 1 1 0 65.74976445498912 17.65341809584921 -1.6214900219866788 0 0 0
9844 1 2 0 69.25965401067036 15.760586902012486 -2.034977981023743 0 0 0
7058 1 1 0 69.08875260521869 17.434338235407832 -1.6193321162138499 0 0 0
9965 1 2 0 67.43174048328581 17.751895830945504 -1.9099601177427434 0 0 0
6983 1 1 0 75.03234346138473 15.642376512044455 -1.6331881218313555 0 0 0
9859 1 2 0 74.78616365275391 17.232002778274804 -2.093842173086844 0 0 0
6988 1 1 0 80.84895123201865 15.57878386348704 -1.6137252678744578 0 0 0
9867 1 2 0 80.75853494757618 17.20176061477797 -1.9903085359849835 0 0 0
9879 1 2 0 85.90891903001568 16.889313720773956 -2.0078234455514394 0 0 0
9915 1 2 0 93.2702655356749 15.460592949996402 -2.0991423563160363 0 0 0
7021 1 1 0 91.69499455864035 15.562450362497323 -1.5858585429265994 0 0 0
9916 1 2 0 91.13885034157497 17.07932394057198 -1.7654936337632579 0 0 0
9612 1 2 0 98.00345583022555 16.62447409108028 -1.9481978854264348 0 0 0
9520 1 2 0 5.50943757290875 18.13609024131209 -2.092026620364483 0 0 0
6804 1 1 0 5.874213291493903 19.646611795582192 -1.6041311890011531 0 0 0
9580 1 2 0 7.3131495214862525 20.13425704659013 -2.140714635619895 0 0 0
6824 1 1 0 11.120929154318981 19.379024301843284 -1.6070513244520785 0 0 0
9605 1 2 0 9.9146279854227 20.331563368393834 -2.1388820651956686 0 0 0
9609 1 2 0 12.484594982651394 20.197294923747464 -1.884309463172747 0 0 0
7029 1 1 0 17.54227213033541 18.54383168826652 -1.6071648042108395 0 0 0
9928 1 2 0 17.065415421167177 20.035054436964913 -2.132878625101747 0 0 0
9929 1 2 0 19.10158755687136 18.171286324685806 -1.9516996591188005 0 0 0
7032 1 1 0 20.70939592226871 18.261293829900332 -1.6045353811770975 0 0 0
9932 1 2 0 21.011346190138244 19.877546154619765 -2.0846583639538463 0 0 0
9936 1 2 0 25.609913158370794 20.3230249774658 -2.0751840859078947 0 0 0
7035 1 1 0 26.950677106768055 19.382358821183992 -1.626823728620455 0 0 0
7039 1 1 0 31.098750153805305 18.533980333096924 -1.5221529911466591 0 0 0
9770 1 2 0 32.602802091017345 18.00466235436228 -1.8831400598942973 0 0 0
9944 1 2 0 31.278604763910312 20.112524863638196 -1.7901560520711879 0 0 0
7040 1 1 0 35.18279125822069 19.84855559382238 -1.5659700340586804 0 0 0
9943 1 2 0 33.6068100567005 20.080859863088474 -1.8986126215393124 0 0 0
9941 1 2 0 36.64216694548955 19.478501518881007 -2.1381802046318263 0 0 0
7038 1 1 0 38.164512527518674 19.426812225121413 -1.5851489645541395 0 0 0
7043 1 1 0 42.73048573415045 19.351430617903024 -1.6303317146965426 0 0 0
9950 1 2 0 44.066717391809654 20.135548777953566 -2.1471740140694977 0 0 0
7045 1 1 0 49.840191932888736 18.545955169292615 -1.6142514616250956 0 0 0
9952 1 2 0 49.10832683530714 19.850325526704143 -2.1754571871858177 0 0 0
9953 1 2 0 51.44136222689063 18.65031415704572 -1.857282496847024 0 0 0
9957 1 2 0 54.25452420113754 18.36138763786857 -2.151722473849266 0 0 0
9961 1 2 0 57.071487668302545 18.889990125777285 -2.053509316171814 0 0 0
7052 1 1 0 55.530037981270304 19.262381134237945 -1.632363042153567 0 0 0
7051 1 1 0 58.53821820785752 18.265473271800943 -1.6227525740012148 0 0 0
9962 1 2 0 59.81450545646286 19.285238661505957 -2.0923813861808367 0 0 0
9964 1 2 0 64.9853666584926 19.123091034890287 -2.0800784200468367 0 0 0
9972 1 2 0 70.28142424609887 18.71653558138952 -2.027552123957056 0 0 0
7060 1 1 0 71.53695913760559 19.932158407838166 -1.6207990951171412 0 0 0
9973 1 2 0 73.12548635816088 19.422622870590292 -1.9657454336605007 0 0 0
7059 1 1 0 74.67964509078327 18.836953426642037 -1.6239519670126186 0 0 0
9974 1 2 0 76.05334052896801 19.732448744861472 -2.0978078682275263 0 0 0
9977 1 2 0 78.92817358324834 19.535490959354156 -2.0939411355393522 0 0 0
7062 1 1 0 80.38459871192958 18.78923151127192 -1.614772949638641 0 0 0
9978 1 2 0 81.78770832277735 19.555355990063173 -2.0561456477123765 0 0 0
7065 1 1 0 83.25662525799416 20.189710568195544 -1.6327301329772403 0 0 0
7064 1 1 0 85.97361964160375 18.505603603277972 -1.621518596711279 0 0 0
9980 1 2 0 84.59470915478379 19.31303759749411 -2.1063874668172384 0 0 0
9981 1 2 0 87.39413355646668 19.237270464545347 -2.1013193292814134 0 0 0
9984 1 2 0 90.17158092681271 19.52559375230925 -2.121180532861574 0 0 0
7092 1 1 0 88.70842282569403 20.151774874440033 -1.6519941143289696 0 0 0
7066 1 1 0 91.4711249111045 18.65753268473603 -1.5843895483238468 0 0 0
9983 1 2 0 93.02488955658725 18.74666340225722 -2.1365610848401797 0 0 0
7067 1 1 0 94.55927981733988 18.99474956065397 -1.5809949277838882 0 0 0
6827 1 1 0 97.55778982682003 18.142909697266102 -1.5996630848303308 0 0 0
9615 1 2 0 96.03597773479213 18.494253319934916 -2.133901066119445 0 0 0
9614 1 2 0 98.99296006492706 18.729666895092233 -2.1548876330754365 0 0 0
6828 1 1 0 100.37280537960258 19.431849240339258 -1.5915914052351046 0 0 0
9610 1 2 0 101.91504025391723 19.39792377018366 -2.1382861411557985 0 0 0
9579 1 2 0 4.941141346535723 20.946663455905586 -1.8613197298105952 0 0 0
6822 1 1 0 8.54566085538412 21.039091179466908 -1.629947892229641 0 0 0
9606 1 2 0 8.227148596270922 22.589229706450134 -2.0056103368857836 0 0 0
7031 1 1 0 13.24382269515694 21.598596692618813 -1.6053610677965156 0 0 0
7030 1 1 0 16.296269077402794 21.406775291199043 -1.6397596521324693 0 0 0
9930 1 2 0 14.756375444844645 21.4398614396895 -2.162209001148969 0 0 0
7036 1 1 0 21.42535157755866 21.470496688110376 -1.5993108556513949 0 0 0
9938 1 2 0 23.03465798321265 21.257336209403004 -1.905250242430787 0 0 0
7037 1 1 0 24.611558388815507 21.597656322836734 -1.6055311778325418 0 0 0
9937 1 2 0 27.99218558903643 20.650883514868188 -1.988737111562842 0 0 0
7073 1 1 0 28.366868718619664 22.225343337084407 -1.593258337569124 0 0 0
7074 1 1 0 32.46674460282124 21.229542393386417 -1.5884971994942783 0 0 0
9995 1 2 0 31.680341876096666 22.52219748071877 -2.2277954936430637 0 0 0
9945 1 2 0 35.46204895300901 21.374006212519703 -2.1329207895626046 0 0 0
9996 1 2 0 33.628627958580026 22.459901407669282 -1.7828388576231124 0 0 0
9942 1 2 0 39.23908122238637 20.470918368415308 -2.190004420938541 0 0 0
7044 1 1 0 40.43119591705509 21.445150416828962 -1.6501203901210064 0 0 0
9949 1 2 0 41.678904090875626 20.50569494647987 -2.1040363875202353 0 0 0
7046 1 1 0 45.14371120129287 21.217759385873848 -1.5911092935930657 0 0 0
9955 1 2 0 45.287370694163116 22.769273489612907 -2.0809725680152265 0 0 0
9954 1 2 0 46.635382849525854 20.691974438141212 -1.8901337949971844 0 0 0
7047 1 1 0 48.18094769266659 21.008419900657916 -1.5877766168779277 0 0 0
9956 1 2 0 48.762322265579975 22.422634657938904 -2.072701756288376 0 0 0
7119 1 1 0 54.794035121091284 22.25768017741567 -1.5935514273581715 0 0 0
10063 1 2 0 53.23848163722349 22.727555371796107 -1.8383779798622735 0 0 0
9963 1 2 0 55.132699372680705 20.762207114731716 -2.1244809074836386 0 0 0
7054 1 1 0 60.891803816440856 20.521402752538922 -1.6150437464806326 0 0 0
9967 1 2 0 60.34989421113296 22.055081314383045 -1.9936426645472236 0 0 0
9966 1 2 0 62.530281068477656 20.42726807274679 -2.0110865387761683 0 0 0
7055 1 1 0 64.17269021039267 20.57148455009717 -1.629704975688704 0 0 0
9968 1 2 0 64.86098220743632 22.10354556929039 -2.030692221409557 0 0 0
9975 1 2 0 71.55695657798289 21.640708567707133 -2.0357091891415213 0 0 0
7063 1 1 0 77.5441425831756 20.423174627578156 -1.6349019191297174 0 0 0
9979 1 2 0 77.66131576300614 22.08027588415479 -1.9841904837840842 0 0 0
9982 1 2 0 83.21843929092826 21.766502613602487 -2.141078596829934 0 0 0
10023 1 2 0 88.5675559991617 21.72422289755259 -2.145237833427426 0 0 0
9985 1 2 0 94.56234351214187 20.602389317736797 -1.7543912174713538 0 0 0
7093 1 1 0 95.4332313265511 21.93909380026636 -1.586009416971711 0 0 0
10024 1 2 0 96.94342095342768 21.71175754235519 -2.1442301999248223 0 0 0
9616 1 2 0 99.6741197259241 20.8468917366571 -1.973138376571914 0 0 0
7094 1 1 0 98.47306003301102 21.868794850700976 -1.6244956620903976 0 0 0
6848 1 1 0 8.554876372268085 24.130775534789862 -1.604262309255034 0 0 0
9643 1 2 0 7.544981784149087 25.315632336608452 -2.088871733601988 0 0 0
9645 1 2 0 10.078566649507849 24.26047217159881 -2.14287347104874 0 0 0
6969 1 1 0 11.622523319645738 24.217539155224973 -1.6505306014656058 0 0 0
9836 1 2 0 12.434725847653754 22.901095794588407 -2.165457960410429 0 0 0
9931 1 2 0 16.832085407651444 22.887582030285323 -2.097230443628461 0 0 0
7098 1 1 0 17.184052036981296 24.422508520334144 -1.6307608889992462 0 0 0
10030 1 2 0 18.73770704080919 24.5775713645537 -2.0884516759115916 0 0 0
9939 1 2 0 20.936561974082107 23.05141559407504 -2.087485826568849 0 0 0
7097 1 1 0 20.30782439459932 24.5978062351703 -1.6281778207458193 0 0 0
9940 1 2 0 24.721475865990445 23.191764716763583 -2.1116612277425255 0 0 0
7101 1 1 0 24.644253717028008 24.7703229626992 -1.5682921942191215 0 0 0
9994 1 2 0 27.885829910686105 23.74144607543102 -2.1292489143139277 0 0 0
7104 1 1 0 27.723300566279075 25.291013751686897 -1.5711530613518863 0 0 0
9993 1 2 0 29.746084901187036 23.008944116482194 -2.082039403266411 0 0 0
7075 1 1 0 31.06016540376233 23.896897232549264 -1.5792057043894225 0 0 0
9997 1 2 0 32.20899295497631 24.97244491358727 -2.060132857295875 0 0 0
7107 1 1 0 35.21668482916285 22.879163701191207 -1.5290256997130354 0 0 0
10048 1 2 0 35.04370982848384 24.736326551119966 -1.6853482979841812 0 0 0
10045 1 2 0 36.70614842486313 23.637905575079227 -1.5518248839681914 0 0 0
7109 1 1 0 36.90940783045001 25.30246412535212 -1.537959481949722 0 0 0
9951 1 2 0 40.344436365640824 23.00277010597091 -2.154689660478957 0 0 0
7108 1 1 0 39.90877208702761 24.50502208604556 -1.6481167911542671 0 0 0
10046 1 2 0 38.425730321898314 25.020621753201432 -2.122252743618707 0 0 0
7112 1 1 0 45.97800214464431 24.18840645350984 -1.6539489773764213 0 0 0
10053 1 2 0 47.56337024124212 24.403436204242194 -2.076051776399993 0 0 0
7118 1 1 0 49.093316522642816 23.945982725007017 -1.6105465098702731 0 0 0
10062 1 2 0 50.654631269887226 24.08630339717956 -2.150877263795911 0 0 0
7120 1 1 0 52.2077790017615 23.987657771917974 -1.5971824013961822 0 0 0
10065 1 2 0 53.25471655309208 25.126542462047244 -2.1030169261638134 0 0 0
10064 1 2 0 56.01520511979302 23.23429937222021 -2.0926868548807946 0 0 0
7122 1 1 0 57.05421948752497 24.425100195188875 -1.628390150102497 0 0 0
10066 1 2 0 58.6217349868335 24.19291728986355 -2.139818070197314 0 0 0
7121 1 1 0 60.12665524838507 23.667535397885146 -1.6250012359072437 0 0 0
10067 1 2 0 61.40636538467902 24.64723891143746 -2.075656900118085 0 0 0
10069 1 2 0 64.18117649475627 24.864146807552952 -1.91739686818931 0 0 0
7123 1 1 0 65.40311443781455 23.696310356432043 -1.6231013082422183 0 0 0
10070 1 2 0 67.03703953417308 24.19036893235725 -2.0585719772468964 0 0 0
7129 1 1 0 68.61735565704565 24.838098755109446 -1.6228003932743889 0 0 0
7128 1 1 0 71.67582582743167 23.344461406718292 -1.621590314478188 0 0 0
10077 1 2 0 70.10623668497134 24.01354189140169 -1.9279283979805049 0 0 0
10078 1 2 0 73.1204565668225 24.357496535231533 -2.0034575954205884 0 0 0
10083 1 2 0 76.05961077722397 24.389264492027575 -1.9793856624783417 0 0 0
7133 1 1 0 74.63692385465235 25.259395848104194 -1.6195938841727502 0 0 0
7132 1 1 0 77.58810889850366 23.73568426663587 -1.6153312137141498 0 0 0
10084 1 2 0 78.98174935427943 24.629793007916103 -2.0779112386091243 0 0 0
7137 1 1 0 80.51380137347124 25.243858140065807 -1.6153029593380122 0 0 0
7136 1 1 0 83.09008919728397 23.332646625532554 -1.617995414826458 0 0 0
10089 1 2 0 81.64944985653912 24.075851306560693 -1.9449807078357366 0 0 0
10090 1 2 0 84.38699453531864 24.215192438004664 -2.1203803200087767 0 0 0
7139 1 1 0 85.79371213657036 24.89772285034279 -1.6013752644476982 0 0 0
7138 1 1 0 88.51144273667695 23.296032235206596 -1.6399121457992918 0 0 0
10092 1 2 0 87.12506391080402 24.06117462000323 -2.0926906319165752 0 0 0
10093 1 2 0 89.80050777056559 24.19839555973691 -2.1274506641350515 0 0 0
7141 1 1 0 90.92380540722817 25.286454460652603 -1.6166740168994822 0 0 0
10095 1 2 0 92.45087834771321 24.995256922685478 -2.153003353356621 0 0 0
10025 1 2 0 94.57089618045862 23.18923312620636 -2.1478791429216564 0 0 0
7140 1 1 0 93.94211390792482 24.585035291791254 -1.6103674948684503 0 0 0
10026 1 2 0 99.07702828842454 23.25135069143644 -2.175407507094281 0 0 0
7142 1 1 0 99.85044115155029 24.521633927323272 -1.5805607366474006 0 0 0
9676 1 2 0 101.39270736976304 24.583730962435297 -2.027094519504309 0 0 0
6867 1 1 0 102.84897247204411 25.15219721898866 -1.6021547788962025 0 0 0
9642 1 2 0 4.994560343469088 25.622708954078124 -2.14511104367705 0 0 0