ITEM: TIMESTEP
2837
ITEM: NUMBER OF ATOMS
15420
ITEM: BOX BOUNDS pp pp pp
0.0000000000000000e+00 2.0286551867491923e+02
0.0000000000000000e+00 1.7673680326287612e+02
-1.0000000000000000e+02 1.0000000000000000e+02
ITEM: ATOMS id type element x y z v_uncoordination
1 1 Si 191.882 41.8577 1.59763 0
2 1 Si 192.412 44.9299 1.64545 0
3 1 Si 197.728 43.4849 1.62458 0
4 1 Si 195.379 45.7107 1.63377 0
5 1 Si 196.381 38.2248 1.63473 0
6 1 Si 193.066 38.9214 1.61539 0
7 1 Si 199.001 40.5071 1.62865 0
8 1 Si 187.768 45.3443 1.6474 0
9 1 Si 188.797 42.3804 1.62034 0
10 1 Si 190.245 47.2353 1.6254 0
11 1 Si 199.537 45.9933 1.62033 0
12 1 Si 198.064 48.7512 1.63826 0
13 1 Si 194.985 48.9567 1.62609 0
14 1 Si 184.773 46.326 1.62092 0
15 1 Si 182.963 43.6167 1.62903 0
16 1 Si 187.2 39.7185 1.61323 0
17 1 Si 184.036 40.499 1.64214 0
18 1 Si 184.1 49.5817 1.6275 0
19 1 Si 180.636 49.824 1.63584 0
20 1 Si 179.814 44.069 1.61949 0
21 1 Si 178.515 47.0412 1.6074 0
22 1 Si 186.904 51.7692 1.63141 0
23 1 Si 189.919 50.3844 1.6109 0
24 1 Si 0.00521495 49.1948 1.64365 0
25 1 Si 202.614 46.0683 1.63697 0
26 1 Si 200.246 50.9196 1.6359 0
27 1 Si 2.8617 50.3399 1.62506 0
28 1 Si 1.57416 43.4398 1.63131 0
29 1 Si 4.6569 44.7585 1.63236 0
30 1 Si 5.0747 48.029 1.62387 0
31 1 Si 199.694 53.9816 1.62861 0
32 1 Si 2.59214 53.521 1.64021 0
33 1 Si 202.693 55.0782 1.61981 0
34 1 Si 114.356 6.53662 1.61953 0
35 1 Si 117.42 5.29478 1.61639 0
36 1 Si 113.513 9.64476 1.61963 0
37 1 Si 120.039 7.45543 1.62311 0
38 1 Si 118.849 10.5966 1.63554 0
39 1 Si 115.765 11.8549 1.63006 0
40 1 Si 111.278 5.45726 1.63183 0
41 1 Si 117.471 1.95001 1.62344 0
42 1 Si 111.007 2.29054 1.63241 0
43 1 Si 114.157 0.737569 1.6335 0
44 1 Si 108.775 7.59342 1.61382 0
45 1 Si 110.354 10.3681 1.62672 0
46 1 Si 123.354 6.42203 1.62333 0
47 1 Si 123.246 2.99187 1.61826 0
48 1 Si 120.709 0.62478 1.63539 0
49 1 Si 126.64 8.15616 1.62867 0
50 1 Si 127.682 11.4941 1.61138 0
51 1 Si 120.485 13.3137 1.6067 0
52 1 Si 126.298 14.6537 1.63601 0
53 1 Si 123.184 14.9235 1.62869 0
54 1 Si 129.566 6.33629 1.62418 0
55 1 Si 129.268 3.16238 1.62679 0
56 1 Si 126.294 1.89062 1.64164 0
57 1 Si 132.89 6.90973 1.64235 0
58 1 Si 133.628 10.0869 1.64874 0
59 1 Si 130.948 12.0714 1.61518 0
60 1 Si 135.52 4.76582 1.61547 0
61 1 Si 135.065 1.48079 1.61881 0
62 1 Si 131.79 1.05888 1.62976 0
63 1 Si 138.747 5.53935 1.64088 0
64 1 Si 139.327 8.64694 1.6244 0
65 1 Si 136.88 10.7154 1.61878 0
66 1 Si 141.532 3.75295 1.62944 0
67 1 Si 140.905 0.523201 1.6234 0
68 1 Si 137.694 176.046 1.6308 0
69 1 Si 144.709 4.86567 1.62512 0
70 1 Si 145.059 8.17037 1.63033 0
71 1 Si 142.331 9.80401 1.62384 0
72 1 Si 147.368 2.76101 1.61977 0
73 1 Si 143.716 175.531 1.61987 0
74 1 Si 147.003 176.142 1.62202 0
75 1 Si 149.88 7.65774 1.62184 0
76 1 Si 150.233 4.37036 1.63721 0
77 1 Si 147.768 10.1041 1.6223 0
78 1 Si 154.673 6.01978 1.54579 0
79 1 Si 152.712 8.89021 1.61497 0
80 1 Si 153.325 3.15921 1.6411 0
81 1 Si 156.329 9.01838 1.59282 0
82 1 Si 154.409 11.5418 1.60665 0
83 1 Si 159.722 4.97915 1.60218 0
84 1 Si 159.265 8.23878 1.5748 0
85 1 Si 158.564 1.94062 1.63028 0
86 1 Si 155.488 0.596176 1.63942 0
87 1 Si 162.862 4.49058 1.61193 0
88 1 Si 164.438 7.15592 1.65169 0
89 1 Si 162.837 9.93728 1.59744 0
90 1 Si 160.046 11.483 1.63021 0
91 1 Si 164.281 1.65275 1.61818 0
92 1 Si 161.344 0.239034 1.62518 0
93 1 Si 167.619 6.6731 1.59703 0
94 1 Si 167.96 9.76888 1.62395 0
95 1 Si 165.454 11.5698 1.61552 0
96 1 Si 170.447 5.12787 1.64438 0
97 1 Si 170.333 1.96725 1.62827 0
98 1 Si 167.374 0.520126 1.62116 0
99 1 Si 173.407 6.47884 1.64143 0
100 1 Si 173.6 9.5891 1.59925 0
101 1 Si 170.795 10.8617 1.60914 0
102 1 Si 176.408 5.45533 1.63672 0
103 1 Si 176.287 2.28453 1.62977 0
104 1 Si 173.401 0.818117 1.62483 0
105 1 Si 179.029 7.42213 1.62402 0
106 1 Si 178.717 10.8703 1.64279 0
107 1 Si 175.694 11.9701 1.63679 0
108 1 Si 181.424 5.07243 1.62776 0
109 1 Si 181.725 1.70307 1.6394 0
110 1 Si 178.777 0.223141 1.62323 0
111 1 Si 184.461 6.02999 1.63462 0
112 1 Si 185.228 9.21047 1.64899 0
113 1 Si 183.659 12.1802 1.62637 0
114 1 Si 180.651 13.6663 1.62047 0
115 1 Si 186.238 3.27398 1.62227 0
116 1 Si 184.838 0.331866 1.61616 0
117 1 Si 189.386 3.11758 1.63117 0
118 1 Si 191.368 5.46037 1.60359 0
119 1 Si 191.494 8.47019 1.6487 0
120 1 Si 188.416 9.24193 1.58091 0
121 1 Si 192.085 1.46699 1.60176 0
122 1 Si 190.537 174.101 1.64306 0
123 1 Si 186.843 174.197 1.64106 0
124 1 Si 193.788 175.528 1.64441 0
125 1 Si 194.02 3.92968 1.59892 0
126 1 Si 197.303 7.78995 1.63522 0
127 1 Si 197.034 4.584 1.61864 0
128 1 Si 194.55 9.33815 1.63963 0
129 1 Si 201.996 6.83726 1.62355 0
130 1 Si 201.75 3.52166 1.6366 0
131 1 Si 200.023 9.43361 1.62144 0
132 1 Si 198.875 1.92501 1.61755 0
133 1 Si 2.1309 7.80286 1.59981 0
134 1 Si 3.51229 4.96344 1.60637 0
135 1 Si 1.86212 2.22119 1.63772 0
136 1 Si 105.464 7.61632 1.6266 0
137 1 Si 108.923 13.2683 1.61647 0
138 1 Si 105.601 13.6627 1.62513 0
139 1 Si 103.754 10.7548 1.63269 0
140 1 Si 104.918 4.21295 1.63455 0
141 1 Si 107.577 1.81864 1.62406 0
142 1 Si 114.356 14.8514 1.6388 0
143 1 Si 111.199 15.6501 1.62755 0
144 1 Si 190.216 11.7717 1.60725 0
145 1 Si 193.299 12.1349 1.61031 0
146 1 Si 4.45157 9.99475 1.64162 0
147 1 Si 200.774 12.6601 1.64465 0
148 1 Si 0.907689 13.8421 1.6014 0
149 1 Si 3.99673 13.1067 1.64053 0
150 1 Si 6.52004 5.75445 1.62138 0
151 1 Si 7.40152 8.80795 1.60708 0
152 1 Si 8.26734 3.19334 1.64157 0
153 1 Si 6.60759 0.455839 1.62684 0
154 1 Si 3.55884 176.132 1.62181 0
155 1 Si 116.268 17.4371 1.62146 0
156 1 Si 119.105 16.1401 1.60285 0
157 1 Si 131.591 15.2144 1.63641 0
158 1 Si 126.79 18.0849 1.62854 0
159 1 Si 129.984 18.0622 1.64086 0
160 1 Si 139.133 13.0629 1.63246 0
161 1 Si 134.623 16.044 1.59472 0
162 1 Si 137.76 15.835 1.65056 0
163 1 Si 142.389 12.9835 1.61067 0
164 1 Si 148.158 13.5328 1.61622 0
165 1 Si 145.106 14.8228 1.63101 0
166 1 Si 153.725 14.7254 1.64494 0
167 1 Si 150.658 16.0079 1.63838 0
168 1 Si 159.101 14.7031 1.62205 0
169 1 Si 156.388 16.6134 1.62461 0
170 1 Si 165.729 14.5938 1.62201 0
171 1 Si 160.902 17.3477 1.62283 0
172 1 Si 163.978 17.1416 1.649 0
173 1 Si 171.326 13.8757 1.62266 0
174 1 Si 168.702 15.4059 1.63003 0
175 1 Si 174.276 14.8462 1.63625 0
176 1 Si 185.557 14.7442 1.60726 0
177 1 Si 180.185 17.338 1.61569 0
178 1 Si 185.478 17.9309 1.62866 0
179 1 Si 182.753 19.5986 1.6211 0
180 1 Si 188.649 14.3641 1.60441 0
181 1 Si 187.495 55.1877 1.63328 0
182 1 Si 179.374 52.932 1.62996 0
183 1 Si 181.405 55.616 1.60527 0
184 1 Si 184.509 56.8773 1.63363 0
185 1 Si 192.972 51.5146 1.61733 0
186 1 Si 193.741 54.7255 1.62593 0
187 1 Si 190.888 56.6346 1.61781 0
188 1 Si 193.439 15.2355 1.65384 0
189 1 Si 199.136 15.4361 1.62819 0
190 1 Si 196.187 16.6644 1.63898 0
191 1 Si 104.727 16.9571 1.61753 0
192 1 Si 101.992 18.9145 1.63247 0
193 1 Si 100.363 11.3002 1.63215 0
194 1 Si 98.7544 14.3355 1.60126 0
195 1 Si 98.9399 17.7036 1.63975 0
196 1 Si 110.363 18.8408 1.62854 0
197 1 Si 107.1 19.2577 1.62401 0
198 1 Si 115.896 20.7156 1.63156 0
199 1 Si 112.556 21.445 1.62925 0
200 1 Si 121.775 17.7225 1.61539 0
201 1 Si 190.671 16.7141 1.59371 0
202 1 Si 1.49361 16.9706 1.60005 0
203 1 Si 201.34 17.7345 1.62358 0
204 1 Si 4.42686 18.1279 1.62435 0
205 1 Si 6.2224 15.4551 1.61438 0
206 1 Si 121.811 20.8579 1.61654 0
207 1 Si 118.861 22.5214 1.64167 0
208 1 Si 125.104 21.1285 1.61829 0
209 1 Si 134.494 19.136 1.6055 0
210 1 Si 131.826 20.7022 1.58718 0
211 1 Si 139.55 18.4125 1.60735 0
212 1 Si 137.233 20.4575 1.59886 0
213 1 Si 145.041 18.0378 1.6155 0
214 1 Si 142.373 19.7173 1.62719 0
215 1 Si 150.394 19.5991 1.62078 0
216 1 Si 147.263 20.3366 1.60088 0
217 1 Si 156.708 19.9922 1.61687 0
218 1 Si 151.786 22.9003 1.63552 0
219 1 Si 155.096 22.9892 1.63923 0
220 1 Si 159.903 20.3943 1.61857 0
221 1 Si 168.971 18.4141 1.62829 0
222 1 Si 166.031 19.4248 1.59802 0
223 1 Si 174.543 18.0294 1.64491 0
224 1 Si 171.79 19.6549 1.63304 0
225 1 Si 177.46 19.4052 1.62814 0
226 1 Si 188.496 18.9667 1.64684 0
227 1 Si 195.412 19.7169 1.63121 0
228 1 Si 200.903 20.7897 1.64195 0
229 1 Si 197.888 21.5304 1.59888 0
230 1 Si 105.854 22.2674 1.62224 0
231 1 Si 102.57 22.2069 1.61245 0
232 1 Si 107.793 24.9098 1.61697 0
233 1 Si 111.163 24.553 1.62683 0
234 1 Si 177.265 22.7594 1.61904 0
235 1 Si 180.023 24.4193 1.62567 0
236 1 Si 182.943 22.9825 1.63327 0
237 1 Si 190.016 21.648 1.62471 0
238 1 Si 193.124 21.7974 1.61225 0
239 1 Si 202.835 23.2562 1.58704 0
240 1 Si 197.779 24.6014 1.61145 0
241 1 Si 200.674 25.4949 1.62131 0
242 1 Si 2.16446 25.5408 1.6521 0
243 1 Si 4.9847 24.233 1.63197 0
244 1 Si 5.58376 21.1048 1.60853 0
245 1 Si 106.217 27.882 1.63236 0
246 1 Si 102.809 27.9155 1.62436 0
247 1 Si 100.853 25.1084 1.62803 0
248 1 Si 118.914 25.9145 1.61331 0
249 1 Si 112.937 27.4087 1.64464 0
250 1 Si 116.189 27.6933 1.62377 0
251 1 Si 126.017 24.344 1.63999 0
252 1 Si 121.32 28.3047 1.64693 0
253 1 Si 124.232 27.075 1.62502 0
254 1 Si 133.688 23.3343 1.64845 0
255 1 Si 128.91 25.7846 1.61412 0
256 1 Si 132.083 25.9973 1.64445 0
257 1 Si 136.912 23.5335 1.59949 0
258 1 Si 142.469 22.9282 1.60951 0
259 1 Si 139.839 24.8529 1.6467 0
260 1 Si 145.674 23.1576 1.63775 0
261 1 Si 147.018 26.034 1.61964 0
262 1 Si 150.274 26.1305 1.61289 0
263 1 Si 161.752 23.075 1.65242 0
264 1 Si 156.79 25.9909 1.6211 0
265 1 Si 159.994 25.6429 1.62477 0
266 1 Si 167.101 22.279 1.64099 0
267 1 Si 164.809 24.3418 1.62893 0
268 1 Si 170.248 22.3922 1.64322 0
269 1 Si 174.948 25.1437 1.63194 0
270 1 Si 171.815 25.0554 1.61714 0
271 1 Si 179.474 27.5738 1.62484 0
272 1 Si 174.472 28.4178 1.63337 0
273 1 Si 177.222 29.8754 1.63227 0
274 1 Si 185.209 25.4096 1.5961 0
275 1 Si 190.176 24.7064 1.62941 0
276 1 Si 188.094 26.9235 1.65187 0
277 1 Si 193.231 24.921 1.60299 0
278 1 Si 195.643 26.8383 1.65452 0
279 1 Si 111.503 30.4212 1.61037 0
280 1 Si 108.284 30.5292 1.61329 0
281 1 Si 166.879 26.8739 1.61129 0
282 1 Si 169.993 27.6607 1.61545 0
283 1 Si 184.554 28.5075 1.6266 0
284 1 Si 181.728 29.7198 1.6303 0
285 1 Si 201.382 28.4794 1.61412 0
286 1 Si 1.62507 28.7139 1.59324 0
287 1 Si 7.38051 26.322 1.60842 0
288 1 Si 8.76264 21.3054 1.62283 0
289 1 Si 9.81772 24.2926 1.61364 0
290 1 Si 117.057 30.7308 1.58939 0
291 1 Si 112.557 33.6093 1.6358 0
292 1 Si 115.618 33.5365 1.60795 0
293 1 Si 121.846 31.7196 1.65097 0
294 1 Si 119.098 33.1194 1.63831 0
295 1 Si 128.805 28.9214 1.58842 0
296 1 Si 125.852 29.8035 1.61409 0
297 1 Si 133.934 28.5979 1.62041 0
298 1 Si 130.012 31.8085 1.65202 0
299 1 Si 133.045 31.6439 1.63118 0
300 1 Si 139.811 28.0474 1.6227 0
301 1 Si 136.952 29.4073 1.6314 0
302 1 Si 145.394 28.8126 1.61287 0
303 1 Si 142.426 29.9338 1.63492 0
304 1 Si 150.409 29.6041 1.6398 0
305 1 Si 147.527 31.1961 1.60922 0
306 1 Si 157.01 29.3623 1.628 0
307 1 Si 152.401 32.2926 1.64053 0
308 1 Si 155.75 32.426 1.64483 0
309 1 Si 161.967 28.1228 1.63403 0
310 1 Si 160.011 30.5248 1.60324 0
311 1 Si 164.913 29.2918 1.62479 0
312 1 Si 171.798 30.338 1.62563 0
313 1 Si 189.48 29.8304 1.58287 0
314 1 Si 186.556 30.8718 1.59284 0
315 1 Si 196.306 29.9016 1.62284 0
316 1 Si 191.444 32.3507 1.63398 0
317 1 Si 194.677 32.6098 1.62921 0
318 1 Si 199.336 30.7675 1.61204 0
319 1 Si 107.994 33.7689 1.6437 0
320 1 Si 105.106 34.7547 1.59187 0
321 1 Si 102.166 33.785 1.62638 0
322 1 Si 101.099 30.7769 1.64119 0
323 1 Si 109.173 36.8387 1.63978 0
324 1 Si 112.326 36.9794 1.63202 0
325 1 Si 125.943 32.9067 1.60608 0
326 1 Si 123.425 34.7678 1.58235 0
327 1 Si 165.417 32.4171 1.62979 0
328 1 Si 171.149 33.6925 1.64219 0
329 1 Si 167.937 34.5201 1.62134 0
330 1 Si 177.836 33.0351 1.62206 0
331 1 Si 180.986 32.7893 1.62621 0
332 1 Si 2.4089 31.8382 1.63929 0
333 1 Si 200.023 33.859 1.62158 0
334 1 Si 0.370911 34.5237 1.62912 0
335 1 Si 5.63213 31.8331 1.64515 0
336 1 Si 7.92094 29.464 1.64933 0
337 1 Si 117.688 35.9337 1.61149 0
338 1 Si 128.573 34.5926 1.60165 0
339 1 Si 136.872 32.5227 1.61317 0
340 1 Si 134.413 34.4825 1.57409 0
341 1 Si 142.05 33.0909 1.63459 0
342 1 Si 139.271 34.4045 1.62571 0
343 1 Si 146.37 34.276 1.63684 0
344 1 Si 143.547 35.8824 1.60314 0
345 1 Si 150.802 35.1912 1.60362 0
346 1 Si 147.977 36.9598 1.62439 0
347 1 Si 162.217 32.8255 1.63587 0
348 1 Si 161.229 35.7633 1.62298 0
349 1 Si 157.902 35.1885 1.6179 0
350 1 Si 176.481 35.9753 1.63634 0
351 1 Si 173.219 36.4523 1.62167 0
352 1 Si 186.112 33.963 1.61898 0
353 1 Si 183.136 35.1014 1.64441 0
354 1 Si 189.231 34.7234 1.63283 0
355 1 Si 196.969 35.007 1.63031 0
356 1 Si 104.616 37.8243 1.57541 0
357 1 Si 107.246 39.4627 1.6264 0
358 1 Si 117.497 39.1667 1.62938 0
359 1 Si 114.212 39.8109 1.62293 0
360 1 Si 124.803 37.8536 1.62664 0
361 1 Si 120.169 41.2924 1.61029 0
362 1 Si 123.616 40.9374 1.63214 0
363 1 Si 128.116 37.7407 1.63194 0
364 1 Si 135.448 37.4727 1.65237 0
365 1 Si 130.507 40.005 1.60604 0
366 1 Si 133.79 40.1666 1.62461 0
367 1 Si 138.617 37.4596 1.59575 0
368 1 Si 141.602 38.5137 1.63837 0
369 1 Si 151.634 38.2069 1.62575 0
370 1 Si 146.724 40.0831 1.63714 0
371 1 Si 149.747 40.7689 1.64541 0
372 1 Si 163.761 37.95 1.6312 0
373 1 Si 157.447 38.3996 1.63166 0
374 1 Si 159.556 40.9074 1.62939 0
375 1 Si 162.787 41.0124 1.62581 0
376 1 Si 167.056 37.7185 1.62217 0
377 1 Si 178.662 38.4535 1.62198 0
378 1 Si 181.908 38.077 1.62388 0
379 1 Si 189.914 37.8223 1.64139 0
380 1 Si 1.51091 37.6824 1.6267 0
381 1 Si 202.555 40.5315 1.63537 0
382 1 Si 4.81735 37.6726 1.62672 0
383 1 Si 6.42517 34.8866 1.62386 0
384 1 Si 101.665 36.9038 1.64657 0
385 1 Si 154.47 39.4274 1.63106 0
386 1 Si 172.407 39.8003 1.63327 0
387 1 Si 169.128 40.4002 1.63891 0
388 1 Si 11.3362 4.09979 1.63205 0
389 1 Si 12.351 7.21415 1.63155 0
390 1 Si 10.454 9.86701 1.63479 0
391 1 Si 13.3134 1.58391 1.64197 0
392 1 Si 11.7768 175.518 1.5965 0
393 1 Si 8.68715 174.939 1.59684 0
394 1 Si 177.793 41.5398 1.61698 0
395 1 Si 174.687 42.4017 1.61203 0
396 1 Si 16.4665 2.20818 1.63135 0
397 1 Si 17.5234 5.25547 1.59969 0
398 1 Si 15.4873 7.70115 1.60029 0
399 1 Si 18.4011 176.345 1.63584 0
400 1 Si 23.1057 3.66861 1.60789 0
401 1 Si 23.0461 7.08864 1.63922 0
402 1 Si 21.5567 0.666919 1.62413 0
403 1 Si 19.8767 7.40069 1.62903 0
404 1 Si 14.5832 170.996 1.63885 0
405 1 Si 11.7548 172.357 1.6364 0
406 1 Si 17.1133 173.224 1.61107 0
407 1 Si 26.1566 2.65285 1.60926 0
408 1 Si 28.5291 4.75067 1.62165 0
409 1 Si 28.0545 7.93782 1.61631 0
410 1 Si 25.3428 9.72024 1.62284 0
411 1 Si 26.8166 176.232 1.60856 0
412 1 Si 23.7557 174.933 1.62619 0
413 1 Si 31.6868 3.97885 1.6176 0
414 1 Si 33.2902 6.79109 1.62479 0
415 1 Si 31.0176 9.13631 1.62677 0
416 1 Si 32.9852 0.960058 1.63363 0
417 1 Si 39.4675 6.1274 1.6332 0
418 1 Si 36.4699 7.50526 1.61407 0
419 1 Si 39.5208 2.84159 1.63322 0
420 1 Si 36.6047 0.939447 1.61684 0
421 1 Si 30.1368 175.587 1.6326 0
422 1 Si 106.942 42.6682 1.6376 0
423 1 Si 103.631 43.7666 1.64521 0
424 1 Si 99.4146 39.0711 1.62225 0
425 1 Si 100.454 42.2851 1.62848 0
426 1 Si 41.9915 8.33841 1.62074 0
427 1 Si 37.0635 10.6711 1.62057 0
428 1 Si 40.2765 11.1311 1.62168 0
429 1 Si 42.606 1.43257 1.61827 0
430 1 Si 41.5214 175.062 1.62121 0
431 1 Si 38.2078 174.811 1.62047 0
432 1 Si 113.286 43.071 1.6448 0
433 1 Si 110.009 44.1698 1.62336 0
434 1 Si 45.9586 2.31565 1.63225 0
435 1 Si 47.2756 5.57702 1.62495 0
436 1 Si 45.3871 8.47583 1.63247 0
437 1 Si 48.0656 176.315 1.62332 0
438 1 Si 43.4854 172.431 1.62802 0
439 1 Si 46.8338 173.06 1.6276 0
440 1 Si 119.228 44.4743 1.61209 0
441 1 Si 115.961 45.2279 1.62857 0
442 1 Si 52.6533 3.42013 1.61587 0
443 1 Si 51.3645 0.351058 1.62603 0
444 1 Si 50.6671 6.11533 1.62836 0
445 1 Si 126.205 43.3116 1.63047 0
446 1 Si 121.773 46.5886 1.60857 0
447 1 Si 125.07 46.3534 1.62748 0
448 1 Si 129.653 43.1389 1.60053 0
449 1 Si 61.5689 4.8751 1.61942 0
450 1 Si 58.3353 5.40446 1.63337 0
451 1 Si 62.7646 7.89246 1.61446 0
452 1 Si 57.7907 8.63421 1.61576 0
453 1 Si 60.6187 10.2433 1.62129 0
454 1 Si 55.9814 3.11526 1.63703 0
455 1 Si 56.8811 176.716 1.61658 0
456 1 Si 63.5915 2.2934 1.62802 0
457 1 Si 59.6212 174.858 1.62735 0
458 1 Si 62.9983 175.794 1.6184 0
459 1 Si 54.0177 175.153 1.61392 0
460 1 Si 135.497 43.0262 1.62902 0
461 1 Si 132.651 44.8435 1.63659 0
462 1 Si 67.5374 6.09404 1.61611 0
463 1 Si 66.741 3.02072 1.60762 0
464 1 Si 65.8278 8.77129 1.65473 0
465 1 Si 141.611 41.7028 1.60916 0
466 1 Si 138.995 43.7099 1.62075 0
467 1 Si 72.3632 3.58335 1.60024 0
468 1 Si 75.6358 4.00476 1.64887 0
469 1 Si 70.6437 6.24301 1.61085 0
470 1 Si 76.8431 7.06151 1.61623 0
471 1 Si 71.833 9.09218 1.65316 0
472 1 Si 74.859 9.52621 1.61565 0
473 1 Si 69.7147 1.67241 1.6394 0
474 1 Si 77.7091 1.48945 1.62036 0
475 1 Si 76.4512 175.12 1.61939 0
476 1 Si 73.1044 174.004 1.61519 0
477 1 Si 69.7459 175.22 1.6382 0
478 1 Si 144.672 42.7486 1.6097 0
479 1 Si 81.0383 1.83105 1.61773 0
480 1 Si 83.1689 4.49856 1.62354 0
481 1 Si 82.4905 7.80042 1.62082 0
482 1 Si 79.5007 8.88221 1.64339 0
483 1 Si 153.566 42.3964 1.61304 0
484 1 Si 150.73 43.7326 1.59924 0
485 1 Si 82.0678 175.395 1.62191 0
486 1 Si 86.4619 3.93407 1.62343 0
487 1 Si 87.734 0.858814 1.63254 0
488 1 Si 85.4657 175.026 1.6341 0
489 1 Si 79.2926 173.301 1.6194 0
490 1 Si 158.425 43.8703 1.606 0
491 1 Si 155.473 44.7527 1.61999 0
492 1 Si 88.4057 6.58442 1.62818 0
493 1 Si 87.4436 9.72801 1.61906 0
494 1 Si 84.3458 10.5858 1.62495 0
495 1 Si 164.626 43.7634 1.62623 0
496 1 Si 167.98 43.5867 1.64243 0
497 1 Si 93.1402 3.35703 1.63024 0
498 1 Si 91.6552 6.43643 1.61423 0
499 1 Si 91.1381 0.600044 1.62711 0
500 1 Si 96.4735 2.73885 1.62073 0
501 1 Si 98.8007 5.18876 1.63028 0
502 1 Si 98.1276 8.76607 1.62266 0
503 1 Si 92.2503 9.76363 1.63558 0
504 1 Si 95.3463 10.7677 1.63447 0
505 1 Si 97.8869 176.354 1.62777 0
506 1 Si 96.0011 173.485 1.63077 0
507 1 Si 92.5855 174.297 1.63299 0
508 1 Si 101.676 3.22349 1.61901 0
509 1 Si 101.283 176.549 1.61826 0
510 1 Si 17.8437 9.80496 1.62113 0
511 1 Si 11.5424 13.0016 1.64506 0
512 1 Si 17.874 12.9693 1.64951 0
513 1 Si 14.7116 13.9018 1.60067 0
514 1 Si 7.52949 43.1409 1.63385 0
515 1 Si 7.18273 39.9055 1.63547 0
516 1 Si 31.5992 12.3042 1.62035 0
517 1 Si 34.8017 12.9778 1.6261 0
518 1 Si 51.9226 9.25205 1.61571 0
519 1 Si 46.7469 11.685 1.6301 0
520 1 Si 50.1317 12.0375 1.61387 0
521 1 Si 55.0482 10.33 1.6262 0
522 1 Si 67.1348 11.7252 1.60668 0
523 1 Si 61.3441 13.4216 1.60842 0
524 1 Si 63.8553 15.5859 1.62734 0
525 1 Si 67.0083 14.9933 1.64063 0
526 1 Si 70.2617 11.7302 1.61948 0
527 1 Si 75.9529 12.4403 1.62723 0
528 1 Si 79.0245 12.0928 1.62641 0
529 1 Si 159.693 46.7419 1.5945 0
530 1 Si 162.969 46.636 1.63978 0
531 1 Si 89.7369 12.0567 1.61521 0
532 1 Si 169.721 46.5239 1.62752 0
533 1 Si 175.336 45.7711 1.63649 0
534 1 Si 172.832 47.8866 1.63113 0
535 1 Si 9.46519 15.5814 1.63718 0
536 1 Si 26.1104 13.1817 1.62699 0
537 1 Si 20.5853 14.894 1.60501 0
538 1 Si 23.87 15.6272 1.64578 0
539 1 Si 29.2461 14.6332 1.62931 0
540 1 Si 109.577 47.4238 1.63857 0
541 1 Si 106.478 48.6379 1.64435 0
542 1 Si 103.559 47.0668 1.64022 0
543 1 Si 41.4149 14.1544 1.6192 0
544 1 Si 44.7553 14.482 1.62216 0
545 1 Si 115.505 48.4805 1.63238 0
546 1 Si 112.309 49.2948 1.6419 0
547 1 Si 121.238 49.7763 1.60589 0
548 1 Si 118.07 50.6771 1.63499 0
549 1 Si 126.781 49.1779 1.6254 0
550 1 Si 124.182 51.2158 1.62934 0
551 1 Si 55.5771 13.5906 1.61622 0
552 1 Si 58.579 15.1363 1.61578 0
553 1 Si 132.931 48.1747 1.63992 0
554 1 Si 130.048 50.0554 1.62087 0
555 1 Si 141.077 46.3955 1.63104 0
556 1 Si 136.004 49.6434 1.61738 0
557 1 Si 139.413 49.2581 1.63708 0
558 1 Si 144.536 46.0895 1.62324 0
559 1 Si 71.4933 14.5768 1.62776 0
560 1 Si 74.5091 15.1654 1.62614 0
561 1 Si 150.366 46.8959 1.63912 0
562 1 Si 147.323 48.318 1.6351 0
563 1 Si 153.625 47.3118 1.599 0
564 1 Si 83.5009 13.8506 1.63786 0
565 1 Si 80.4317 14.9643 1.63113 0
566 1 Si 156.752 48.2829 1.64794 0
567 1 Si 167.996 49.2509 1.62257 0
568 1 Si 164.715 49.3755 1.6267 0
569 1 Si 88.7823 15.4161 1.62663 0
570 1 Si 85.5594 16.3935 1.62819 0
571 1 Si 95.5025 14.1206 1.60147 0
572 1 Si 15.462 16.9674 1.61121 0
573 1 Si 10.5464 18.6759 1.63306 0
574 1 Si 13.6166 19.5095 1.63807 0
575 1 Si 18.5722 17.341 1.61595 0
576 1 Si 35.8709 16.0547 1.63079 0
577 1 Si 30.5347 17.8582 1.61607 0
578 1 Si 33.7097 18.4805 1.61896 0
579 1 Si 39.114 16.5688 1.62883 0
580 1 Si 52.4155 14.5567 1.63231 0
581 1 Si 45.7086 17.7079 1.63164 0
582 1 Si 51.9537 17.8356 1.63372 0
583 1 Si 48.8301 18.9891 1.61494 0
584 1 Si 59.8454 18.1834 1.63057 0
585 1 Si 63.1303 18.7613 1.61603 0
586 1 Si 69.6701 17.098 1.59063 0
587 1 Si 75.5435 18.1419 1.59654 0
588 1 Si 78.9133 17.9959 1.64078 0
589 1 Si 170.06 51.7849 1.61472 0
590 1 Si 173.331 51.2777 1.62819 0
591 1 Si 93.9223 17.1443 1.6202 0
592 1 Si 90.7158 18.1657 1.62597 0
593 1 Si 156.546 51.43 1.6331 0
594 1 Si 159.676 52.534 1.59272 0
595 1 Si 162.982 52.1541 1.62936 0
596 1 Si 24.9976 18.8265 1.60893 0
597 1 Si 19.61 20.2474 1.61484 0
598 1 Si 22.6428 20.8555 1.63397 0
599 1 Si 30.0252 21.2271 1.63039 0
600 1 Si 26.871 21.6389 1.651 0
601 1 Si 7.92624 49.4422 1.62535 0
602 1 Si 10.6289 44.5208 1.64264 0
603 1 Si 10.7569 47.8468 1.61944 0
604 1 Si 106.271 51.8798 1.64251 0
605 1 Si 103.485 53.4954 1.63587 0
606 1 Si 100.659 48.7499 1.63388 0
607 1 Si 100.655 52.0136 1.63944 0
608 1 Si 111.908 52.4744 1.64997 0
609 1 Si 108.952 53.6139 1.64077 0
610 1 Si 40.0001 19.6955 1.63616 0
611 1 Si 43.3044 20.0383 1.61964 0
612 1 Si 117.446 53.8576 1.61895 0
613 1 Si 114.319 54.5756 1.62152 0
614 1 Si 124.542 54.4091 1.61742 0
615 1 Si 119.119 56.6521 1.62694 0
616 1 Si 122.351 56.8339 1.63385 0
617 1 Si 130.227 53.3909 1.62092 0
618 1 Si 127.637 55.3982 1.6255 0
619 1 Si 54.3457 20.2256 1.6093 0
620 1 Si 57.6863 20.5757 1.62582 0
621 1 Si 135.721 52.8616 1.63454 0
622 1 Si 133.132 54.8546 1.64817 0
623 1 Si 141.274 52.0352 1.60672 0
624 1 Si 138.692 53.9953 1.61426 0
625 1 Si 72.3475 19.2229 1.63894 0
626 1 Si 153.637 53.0116 1.60407 0
627 1 Si 147.45 51.8067 1.6233 0
628 1 Si 150.394 53.7748 1.64674 0
629 1 Si 155.461 55.6069 1.62429 0
630 1 Si 158.583 55.4977 1.61086 0
631 1 Si 81.0207 20.565 1.62569 0
632 1 Si 84.2069 19.4977 1.61475 0
633 1 Si 168.379 54.5379 1.64717 0
634 1 Si 165.067 54.6796 1.63532 0
635 1 Si 96.1164 19.6318 1.61196 0
636 1 Si 176.057 53.6895 1.62691 0
637 1 Si 14.7955 22.5184 1.63527 0
638 1 Si 17.9314 22.9136 1.61553 0
639 1 Si 197.002 55.7557 1.63239 0
640 1 Si 34.4752 21.694 1.61896 0
641 1 Si 32.0826 24.0094 1.62254 0
642 1 Si 37.7047 22.1335 1.6337 0
643 1 Si 49.4614 22.2001 1.61905 0
644 1 Si 44.2889 23.1137 1.62946 0
645 1 Si 47.239 24.5108 1.63836 0
646 1 Si 52.5952 22.9842 1.61274 0
647 1 Si 144.396 53.381 1.6336 0
648 1 Si 71.8023 22.4426 1.63042 0
649 1 Si 64.9969 21.6211 1.63229 0
650 1 Si 68.3627 22.7565 1.61698 0
651 1 Si 170.182 57.1955 1.62002 0
652 1 Si 176.43 57.1361 1.60403 0
653 1 Si 172.466 59.3987 1.63064 0
654 1 Si 175.446 60.4163 1.62853 0
655 1 Si 74.2834 25.0159 1.61852 0
656 1 Si 80.5832 23.9495 1.61485 0
657 1 Si 77.7599 26.1738 1.64109 0
658 1 Si 89.4585 21.4809 1.63116 0
659 1 Si 86.061 22.237 1.62037 0
660 1 Si 95.0525 22.9871 1.63106 0
661 1 Si 91.6674 24.1111 1.62645 0
662 1 Si 12.9199 25.0818 1.63276 0
663 1 Si 5.45096 54.7736 1.61226 0
664 1 Si 7.7892 52.6246 1.61837 0
665 1 Si 108.764 56.7666 1.6098 0
666 1 Si 106.028 58.2272 1.6272 0
667 1 Si 103.336 56.6628 1.61521 0
668 1 Si 23.0749 23.9141 1.62127 0
669 1 Si 26.0359 24.8697 1.61401 0
670 1 Si 113.996 57.7588 1.63102 0
671 1 Si 111.028 58.948 1.60363 0
672 1 Si 116.939 59.0731 1.61709 0
673 1 Si 38.7769 25.1676 1.62223 0
674 1 Si 41.9686 25.2197 1.62883 0
675 1 Si 127.179 58.5746 1.6076 0
676 1 Si 124.113 59.491 1.60658 0
677 1 Si 133.32 58.1286 1.60913 0
678 1 Si 128.612 61.4397 1.63353 0
679 1 Si 131.786 61.03 1.64114 0
680 1 Si 59.3468 23.4398 1.62422 0
681 1 Si 53.9383 25.9417 1.62761 0
682 1 Si 57.1738 25.8417 1.6163 0
683 1 Si 138.75 57.1428 1.64423 0
684 1 Si 136.328 59.1776 1.61416 0
685 1 Si 62.6435 23.9695 1.6323 0
686 1 Si 144.305 56.7156 1.62801 0
687 1 Si 141.577 58.4154 1.61855 0
688 1 Si 69.17 25.8842 1.6111 0
689 1 Si 72.0675 27.3931 1.62761 0
690 1 Si 150.928 57.1169 1.61558 0
691 1 Si 146.077 59.4481 1.63177 0
692 1 Si 149.246 59.8877 1.63779 0
693 1 Si 83.8539 24.9382 1.62138 0
694 1 Si 153.967 58.3566 1.62259 0
695 1 Si 163.504 57.5324 1.62977 0
696 1 Si 160.336 58.1536 1.61571 0
697 1 Si 97.4407 25.4132 1.64734 0
698 1 Si 168.373 59.7279 1.60756 0
699 1 Si 165.298 60.1005 1.63344 0
700 1 Si 179.469 58.2015 1.5958 0
701 1 Si 20.1812 25.1477 1.6345 0
702 1 Si 13.8787 28.1543 1.63447 0
703 1 Si 20.1727 28.2994 1.62922 0
704 1 Si 17.0193 29.3489 1.6171 0
705 1 Si 198.838 58.5132 1.62946 0
706 1 Si 191.997 59.9246 1.62521 0
707 1 Si 194.74 62.0231 1.61222 0
708 1 Si 197.982 61.6482 1.63132 0
709 1 Si 32.1901 27.8803 1.63805 0
710 1 Si 26.2426 28.1634 1.63718 0
711 1 Si 29.2298 29.7462 1.62058 0
712 1 Si 202.082 58.1503 1.61795 0
713 1 Si 37.789 28.2371 1.64672 0
714 1 Si 35.1375 30.003 1.62419 0
715 1 Si 1.56227 60.2923 1.60269 0
716 1 Si 6.57051 57.7477 1.6395 0
717 1 Si 4.78723 60.3638 1.63528 0
718 1 Si 47.7883 27.7577 1.61106 0
719 1 Si 49.8525 30.2467 1.62535 0
720 1 Si 52.7361 28.9701 1.61499 0
721 1 Si 63.8271 27.0181 1.65241 0
722 1 Si 66.8896 28.06 1.62032 0
723 1 Si 155.512 61.2522 1.65879 0
724 1 Si 158.843 61.095 1.62434 0
725 1 Si 90.4997 27.5764 1.63094 0
726 1 Si 84.4497 28.3294 1.62584 0
727 1 Si 87.5898 29.7118 1.62777 0
728 1 Si 96.1389 28.4623 1.62653 0
729 1 Si 93.0988 29.6038 1.63483 0
730 1 Si 170.592 61.8643 1.58502 0
731 1 Si 184.156 60.2379 1.6199 0
732 1 Si 180.95 61.0853 1.62831 0
733 1 Si 11.1511 30.0125 1.63095 0
734 1 Si 189.754 62.2226 1.6143 0
735 1 Si 186.547 62.5762 1.63844 0
736 1 Si 23.2248 29.7417 1.62234 0
737 1 Si 105.778 61.3621 1.59367 0
738 1 Si 102.508 61.7529 1.63762 0
739 1 Si 100.968 58.8387 1.60958 0
740 1 Si 109.046 61.5128 1.64213 0
741 1 Si 117.151 62.2976 1.63855 0
742 1 Si 110.732 64.1739 1.64262 0
743 1 Si 114.062 63.7188 1.59308 0
744 1 Si 42.7246 28.211 1.61178 0
745 1 Si 40.2819 30.1389 1.58888 0
746 1 Si 45.3684 29.761 1.60837 0
747 1 Si 123.602 62.6622 1.63476 0
748 1 Si 120.341 63.5355 1.64076 0
749 1 Si 126.646 64.1092 1.6247 0
750 1 Si 136.438 62.3257 1.61484 0
751 1 Si 133.575 63.7254 1.60698 0
752 1 Si 58.4521 28.6699 1.61446 0
753 1 Si 61.5495 29.2025 1.61353 0
754 1 Si 141.548 61.6075 1.63169 0
755 1 Si 139.234 63.7752 1.64923 0
756 1 Si 71.9854 30.7123 1.6094 0
757 1 Si 68.7268 30.7273 1.62137 0
758 1 Si 144.574 62.3413 1.6307 0
759 1 Si 78.577 29.7124 1.61786 0
760 1 Si 77.0853 32.915 1.63089 0
761 1 Si 73.774 33.6876 1.63241 0
762 1 Si 150.461 62.9868 1.61842 0
763 1 Si 153.621 63.9717 1.62263 0
764 1 Si 81.8206 30.5387 1.62022 0
765 1 Si 164.138 63.0305 1.62276 0
766 1 Si 160.94 63.6243 1.63171 0
767 1 Si 169.654 64.7782 1.63611 0
768 1 Si 166.514 65.1119 1.60959 0
769 1 Si 97.8867 31.1949 1.61745 0
770 1 Si 176.315 63.7972 1.61617 0
771 1 Si 179.61 64.1143 1.62971 0
772 1 Si 17.3512 32.5452 1.60319 0
773 1 Si 11.799 33.1037 1.65065 0
774 1 Si 14.7146 34.2631 1.62689 0
775 1 Si 191.302 65.036 1.62341 0
776 1 Si 194.45 65.3417 1.60218 0
777 1 Si 23.0665 33.0615 1.63404 0
778 1 Si 20.0153 34.3792 1.6153 0
779 1 Si 28.9523 33.1657 1.62885 0
780 1 Si 25.893 34.8157 1.63018 0
781 1 Si 0.481675 63.2979 1.60792 0
782 1 Si 200.221 64.1702 1.61991 0
783 1 Si 36.9144 33.2522 1.63875 0
784 1 Si 31.6843 35.1133 1.61465 0
785 1 Si 34.9689 35.7664 1.63135 0
786 1 Si 10.2406 54.5415 1.62312 0
787 1 Si 9.71327 57.6555 1.61719 0
788 1 Si 3.22977 64.9308 1.63039 0
789 1 Si 6.06734 63.3167 1.61956 0
790 1 Si 41.8731 32.8353 1.65067 0
791 1 Si 39.9481 35.2564 1.63582 0
792 1 Si 108.866 66.9036 1.60143 0
793 1 Si 105.919 68.4468 1.64305 0
794 1 Si 102.843 67.2077 1.61301 0
795 1 Si 100.844 64.5528 1.62546 0
796 1 Si 45.0037 32.8618 1.60623 0
797 1 Si 47.2034 35.1381 1.61617 0
798 1 Si 49.9751 33.5515 1.64194 0
799 1 Si 114.185 66.8886 1.6189 0
800 1 Si 111.55 68.6289 1.61953 0
801 1 Si 57.0732 31.4564 1.63809 0
802 1 Si 54.0403 31.9062 1.62291 0
803 1 Si 61.7398 32.3304 1.63725 0
804 1 Si 58.9797 33.8915 1.6163 0
805 1 Si 67.5833 33.6538 1.62537 0
806 1 Si 64.4357 33.8639 1.61276 0
807 1 Si 145.478 65.435 1.61568 0
808 1 Si 139.176 66.9734 1.61897 0
809 1 Si 144.482 68.5528 1.63902 0
810 1 Si 141.378 69.352 1.62704 0
811 1 Si 148.646 65.6446 1.63075 0
812 1 Si 82.1044 33.8679 1.62045 0
813 1 Si 79.2283 35.5325 1.6139 0
814 1 Si 154.449 67.2818 1.62774 0
815 1 Si 160.324 66.7984 1.62376 0
816 1 Si 157.516 68.4366 1.63983 0
817 1 Si 87.6057 33.2909 1.63114 0
818 1 Si 84.9947 35.5039 1.64179 0
819 1 Si 92.9976 32.8956 1.63398 0
820 1 Si 90.4667 35.0324 1.65339 0
821 1 Si 96.0797 33.9532 1.64076 0
822 1 Si 171.71 67.1653 1.60428 0
823 1 Si 174.928 66.9421 1.64844 0
824 1 Si 9.53791 35.2683 1.62748 0
825 1 Si 186.633 65.8639 1.63224 0
826 1 Si 181.162 67.124 1.61312 0
827 1 Si 184.321 68.0172 1.65638 0
828 1 Si 189.457 67.527 1.64268 0
829 1 Si 120.109 66.6824 1.63976 0
830 1 Si 117.15 67.8613 1.62416 0
831 1 Si 127.603 67.3866 1.6339 0
832 1 Si 122.373 68.9221 1.62457 0
833 1 Si 125.394 69.8384 1.63485 0
834 1 Si 133.407 66.9596 1.65442 0
835 1 Si 130.654 68.6945 1.62911 0
836 1 Si 136.321 68.4038 1.61796 0
837 1 Si 69.0844 36.5229 1.62788 0
838 1 Si 63.6755 36.8801 1.60309 0
839 1 Si 66.4411 38.3874 1.62941 0
840 1 Si 72.3616 37.0657 1.63187 0
841 1 Si 149.371 68.7914 1.62581 0
842 1 Si 152.367 69.9146 1.63153 0
843 1 Si 165.904 68.1931 1.59201 0
844 1 Si 162.811 68.9076 1.63451 0
845 1 Si 169.002 68.8615 1.64098 0
846 1 Si 96.6384 37.2513 1.62813 0
847 1 Si 176.486 69.9138 1.61942 0
848 1 Si 179.677 70.0465 1.60877 0
849 1 Si 15.3298 37.3491 1.61582 0
850 1 Si 9.99555 38.3653 1.62161 0
851 1 Si 12.9452 39.4459 1.62553 0
852 1 Si 199.658 67.4773 1.62824 0
853 1 Si 196.318 68.1264 1.63192 0
854 1 Si 18.5385 37.3091 1.6304 0
855 1 Si 25.4274 38.1979 1.65099 0
856 1 Si 19.4384 40.3817 1.64257 0
857 1 Si 22.8124 40.4154 1.62042 0
858 1 Si 2.65148 68.056 1.62759 0
859 1 Si 202.442 69.4826 1.64009 0