ITEM: TIMESTEP
2511
ITEM: NUMBER OF ATOMS
15852
ITEM: BOX BOUNDS pp pp pp
0.0000000000000000e+00 2.0616299728207628e+02
0.0000000000000000e+00 1.7897888519609810e+02
-1.0000000000000000e+02 1.0000000000000000e+02
ITEM: ATOMS id type element x y z v_uncoordination
1 1 Si 153.724 176.455 1.60599 0
2 1 Si 155.332 173.746 1.59776 0
3 1 Si 151.559 174.182 1.64951 0
4 1 Si 153.164 171.488 1.61653 0
5 1 Si 155.147 0.311197 1.61639 0
6 1 Si 158.202 178.576 1.60724 0
7 1 Si 158.38 172.861 1.6253 0
8 1 Si 159.643 175.77 1.62369 0
9 1 Si 149.109 2.22676 1.62961 0
10 1 Si 147.936 177.967 1.61801 0
11 1 Si 154.953 3.53052 1.63946 0
12 1 Si 151.829 4.03375 1.61909 0
13 1 Si 148.495 174.54 1.63729 0
14 1 Si 197.789 25.5625 1.62282 0
15 1 Si 195.755 23.0343 1.62505 0
16 1 Si 201.183 25.1041 1.62641 0
17 1 Si 199.985 19.5044 1.63448 0
18 1 Si 196.888 20.0566 1.65155 0
19 1 Si 202.261 21.8459 1.62863 0
20 1 Si 195.941 28.3482 1.63639 0
21 1 Si 192.522 23.0618 1.62243 0
22 1 Si 190.64 25.6871 1.64852 0
23 1 Si 192.583 28.3327 1.62958 0
24 1 Si 203.118 27.9497 1.62879 0
25 1 Si 197.602 31.1885 1.635 0
26 1 Si 201.012 30.791 1.62689 0
27 1 Si 193.317 177.078 1.61239 0
28 1 Si 196.178 175.222 1.63585 0
29 1 Si 190.229 175.726 1.62163 0
30 1 Si 192.964 170.329 1.60807 0
31 1 Si 195.864 171.872 1.633 0
32 1 Si 190.273 172.255 1.60999 0
33 1 Si 192.956 1.45008 1.62612 0
34 1 Si 195.843 3.37151 1.621 0
35 1 Si 199.264 2.92513 1.62855 0
36 1 Si 201.106 0.145737 1.62979 0
37 1 Si 199.389 176.281 1.61697 0
38 1 Si 189.543 2.29653 1.61984 0
39 1 Si 187.853 178.289 1.62072 0
40 1 Si 116.23 31.675 1.6268 0
41 1 Si 116.548 34.8954 1.62504 0
42 1 Si 121.357 33.5941 1.63372 0
43 1 Si 119.373 36.3537 1.63846 0
44 1 Si 118.494 29.3899 1.61051 0
45 1 Si 121.576 30.2624 1.59631 0
46 1 Si 113.046 31.2013 1.62751 0
47 1 Si 111.522 34.0229 1.62135 0
48 1 Si 113.705 36.3829 1.62007 0
49 1 Si 124.177 34.8201 1.61251 0
50 1 Si 124.392 38.0133 1.59741 0
51 1 Si 119.503 39.7824 1.61356 0
52 1 Si 122.62 40.724 1.62493 0
53 1 Si 105.856 6.67832 1.62232 0
54 1 Si 104.446 3.48173 1.6237 0
55 1 Si 104.028 9.4741 1.62588 0
56 1 Si 100.772 8.8923 1.62133 0
57 1 Si 100.117 5.78632 1.61815 0
58 1 Si 101.251 2.75484 1.62462 0
59 1 Si 109.108 2.39365 1.63231 0
60 1 Si 110.899 5.17717 1.64406 0
61 1 Si 106.27 0.737801 1.62944 0
62 1 Si 109.096 7.81194 1.63216 0
63 1 Si 111.895 1.09309 1.63146 0
64 1 Si 114.764 2.32304 1.62874 0
65 1 Si 114.252 5.37809 1.6216 0
66 1 Si 112.693 177.136 1.61922 0
67 1 Si 117.097 0.251917 1.62247 0
68 1 Si 115.714 176.516 1.61143 0
69 1 Si 108.161 174.427 1.59937 0
70 1 Si 111.247 174.472 1.63965 0
71 1 Si 105.629 176.403 1.64163 0
72 1 Si 120.377 5.44717 1.63736 0
73 1 Si 117.261 6.79864 1.62542 0
74 1 Si 123.086 7.428 1.6373 0
75 1 Si 117.081 10.096 1.6312 0
76 1 Si 123.183 10.6553 1.62237 0
77 1 Si 120.058 11.5889 1.60336 0
78 1 Si 121.262 2.24742 1.61714 0
79 1 Si 120.057 178.206 1.62604 0
80 1 Si 126.123 6.36795 1.6193 0
81 1 Si 126.348 3.24245 1.6189 0
82 1 Si 124.209 1.02671 1.61855 0
83 1 Si 131.19 4.64226 1.64067 0
84 1 Si 129.237 7.16539 1.64907 0
85 1 Si 129.267 2.25651 1.63015 0
86 1 Si 123.746 174.11 1.62692 0
87 1 Si 120.714 174.928 1.63701 0
88 1 Si 125.163 176.984 1.61874 0
89 1 Si 134.204 3.6889 1.61668 0
90 1 Si 135.952 6.33953 1.62128 0
91 1 Si 130.881 9.86922 1.62571 0
92 1 Si 134.132 9.09227 1.63115 0
93 1 Si 135.379 0.679888 1.64476 0
94 1 Si 133.184 177.48 1.60813 0
95 1 Si 130.235 178.359 1.6252 0
96 1 Si 140.089 2.27888 1.61998 0
97 1 Si 139.014 5.31248 1.62355 0
98 1 Si 138.4 178.594 1.61972 0
99 1 Si 143.18 1.71357 1.61699 0
100 1 Si 144.261 4.71204 1.6115 0
101 1 Si 141.837 6.78998 1.63044 0
102 1 Si 144.703 177.869 1.62924 0
103 1 Si 139.892 175.684 1.63534 0
104 1 Si 143.131 175.024 1.6364 0
105 1 Si 147.389 5.02527 1.6345 0
106 1 Si 157.07 6.09332 1.63848 0
107 1 Si 151.791 7.24409 1.60659 0
108 1 Si 157.22 9.35432 1.6106 0
109 1 Si 153.998 9.53099 1.62641 0
110 1 Si 160.095 5.32324 1.62934 0
111 1 Si 160.002 2.15306 1.61863 0
112 1 Si 148.705 7.9714 1.60811 0
113 1 Si 164.596 4.1114 1.63598 0
114 1 Si 162.91 6.84101 1.62494 0
115 1 Si 163.004 1.39297 1.60635 0
116 1 Si 167.724 4.32384 1.61858 0
117 1 Si 169.218 7.1548 1.62501 0
118 1 Si 164.315 9.80643 1.63251 0
119 1 Si 167.592 9.96067 1.62406 0
120 1 Si 169.253 1.55823 1.62975 0
121 1 Si 165.151 176.092 1.62263 0
122 1 Si 162.378 177.274 1.64671 0
123 1 Si 167.693 177.832 1.6013 0
124 1 Si 174.086 4.30944 1.64544 0
125 1 Si 172.406 7.02399 1.64098 0
126 1 Si 172.442 1.59879 1.63611 0
127 1 Si 177.277 4.3228 1.61818 0
128 1 Si 179.204 6.87049 1.61187 0
129 1 Si 174.218 9.61663 1.63246 0
130 1 Si 177.46 9.64967 1.61894 0
131 1 Si 179.038 1.66357 1.62678 0
132 1 Si 174.076 177.888 1.63105 0
133 1 Si 177.293 177.987 1.64207 0
134 1 Si 182.138 5.31858 1.636 0
135 1 Si 182.257 1.99825 1.61397 0
136 1 Si 187.84 5.47401 1.61077 0
137 1 Si 184.764 7.19048 1.62855 0
138 1 Si 189.479 8.27298 1.6057 0
139 1 Si 183.815 10.5975 1.62102 0
140 1 Si 187.095 10.5639 1.62655 0
141 1 Si 184.327 178.287 1.63591 0
142 1 Si 195.47 6.65363 1.62094 0
143 1 Si 192.779 8.60168 1.6609 0
144 1 Si 198.505 7.85632 1.62453 0
145 1 Si 199.387 10.8757 1.61425 0
146 1 Si 193.236 11.7491 1.6213 0
147 1 Si 198.189 13.7644 1.61303 0
148 1 Si 195.217 14.1613 1.6329 0
149 1 Si 200.967 5.77596 1.60794 0
150 1 Si 204.004 7.14911 1.6505 0
151 1 Si 204.716 10.4102 1.5934 0
152 1 Si 201.194 13.437 1.64502 0
153 1 Si 204.229 13.6871 1.64178 0
154 1 Si 0.491771 5.24198 1.62149 0
155 1 Si 1.02601 1.97489 1.6309 0
156 1 Si 204.526 178.743 1.63026 0
157 1 Si 3.28744 6.8564 1.61516 0
158 1 Si 1.39611 11.7747 1.62385 0
159 1 Si 3.94587 9.95983 1.6315 0
160 1 Si 5.73944 4.85123 1.60587 0
161 1 Si 4.45642 1.88379 1.60833 0
162 1 Si 110.819 10.8271 1.62496 0
163 1 Si 114.191 11.8056 1.64291 0
164 1 Si 125.67 12.9553 1.63286 0
165 1 Si 129.122 12.7204 1.62516 0
166 1 Si 141.886 9.94594 1.63628 0
167 1 Si 135.969 11.6578 1.62995 0
168 1 Si 139.169 11.6184 1.5998 0
169 1 Si 144.485 11.8411 1.61778 0
170 1 Si 147.594 11.0343 1.65471 0
171 1 Si 162.675 12.6291 1.63028 0
172 1 Si 159.404 11.9158 1.64876 0
173 1 Si 169.335 12.7136 1.62559 0
174 1 Si 172.616 12.3717 1.61403 0
175 1 Si 178.007 12.8696 1.62132 0
176 1 Si 181.297 13.4162 1.65211 0
177 1 Si 188.125 13.4866 1.63713 0
178 1 Si 191.157 14.0826 1.63294 0
179 1 Si 108.618 13.3336 1.63286 0
180 1 Si 105.416 12.5065 1.63294 0
181 1 Si 120.807 14.7465 1.61117 0
182 1 Si 115.111 15.0523 1.62982 0
183 1 Si 118.148 16.5093 1.63539 0
184 1 Si 123.942 15.829 1.61848 0
185 1 Si 131.268 15.3154 1.63165 0
186 1 Si 134.495 14.5373 1.61932 0
187 1 Si 140.13 14.6425 1.60181 0
188 1 Si 143.322 14.8471 1.6371 0
189 1 Si 149.801 13.3907 1.60611 0
190 1 Si 152.805 12.402 1.62349 0
191 1 Si 167.737 15.6651 1.62419 0
192 1 Si 164.275 15.6894 1.63027 0
193 1 Si 175.037 14.5651 1.61201 0
194 1 Si 187.007 16.3262 1.61757 0
195 1 Si 192.227 17.0447 1.62412 0
196 1 Si 188.522 19.0085 1.61453 0
197 1 Si 191.374 20.1015 1.62059 0
198 1 Si 200.001 16.3376 1.59456 0
199 1 Si 1.53023 14.9324 1.62215 0
200 1 Si 205.172 16.8653 1.59135 0
201 1 Si 109.546 16.5342 1.63014 0
202 1 Si 112.694 17.2016 1.63983 0
203 1 Si 124.614 19.2192 1.63173 0
204 1 Si 130.669 18.6058 1.62474 0
205 1 Si 127.75 20.6063 1.6347 0
206 1 Si 137.306 16.1438 1.63669 0
207 1 Si 144.891 17.6235 1.61672 0
208 1 Si 150.353 16.5755 1.64295 0
209 1 Si 147.953 18.611 1.6298 0
210 1 Si 154.811 14.7615 1.61255 0
211 1 Si 157.942 14.7262 1.64143 0
212 1 Si 173.346 17.4793 1.6229 0
213 1 Si 170.033 18.1492 1.62893 0
214 1 Si 181.369 16.8684 1.64771 0
215 1 Si 184.316 17.793 1.60369 0
216 1 Si 195.271 17.3381 1.61556 0
217 1 Si 4.22901 16.4426 1.62696 0
218 1 Si 6.82213 11.4137 1.62968 0
219 1 Si 6.87312 14.6409 1.62022 0
220 1 Si 103.511 15.1616 1.64661 0
221 1 Si 97.7536 10.3307 1.62821 0
222 1 Si 97.4622 13.4491 1.6365 0
223 1 Si 100.291 14.9762 1.61113 0
224 1 Si 107.677 19.3051 1.62106 0
225 1 Si 104.691 18.2055 1.63487 0
226 1 Si 118.941 19.701 1.63457 0
227 1 Si 113.338 20.331 1.6459 0
228 1 Si 116.283 21.4513 1.63036 0
229 1 Si 121.875 21.2691 1.62383 0
230 1 Si 137.109 19.2678 1.63349 0
231 1 Si 133.802 19.8263 1.6223 0
232 1 Si 140.031 20.8256 1.61651 0
233 1 Si 143.213 20.3364 1.63406 0
234 1 Si 153.417 17.5773 1.59006 0
235 1 Si 159.027 17.6941 1.62412 0
236 1 Si 162.218 18.4503 1.64229 0
237 1 Si 180.254 20.0486 1.62656 0
238 1 Si 174.573 20.4873 1.61619 0
239 1 Si 177.486 21.7588 1.63894 0
240 1 Si 185.847 20.453 1.59996 0
241 1 Si 205.189 20.2559 1.6537 0
242 1 Si 1.93081 21.9582 1.62255 0
243 1 Si 4.24806 19.6367 1.61722 0
244 1 Si 108.14 22.668 1.64123 0
245 1 Si 111.338 22.8483 1.63637 0
246 1 Si 133.736 22.9148 1.63285 0
247 1 Si 128.003 24.0638 1.62591 0
248 1 Si 131.112 24.6651 1.62099 0
249 1 Si 136.503 24.3872 1.61722 0
250 1 Si 139.574 23.9645 1.61821 0
251 1 Si 145.346 22.7389 1.64113 0
252 1 Si 148.395 21.781 1.62288 0
253 1 Si 156.161 19.2631 1.6379 0
254 1 Si 162.285 21.8214 1.62685 0
255 1 Si 169.517 21.5263 1.60732 0
256 1 Si 167.747 24.4393 1.63142 0
257 1 Si 164.418 24.3525 1.63234 0
258 1 Si 182.041 22.7644 1.61731 0
259 1 Si 185.144 23.4088 1.651 0
260 1 Si 106.479 25.7062 1.6214 0
261 1 Si 103.22 26.4405 1.60877 0
262 1 Si 102.789 20.7163 1.6087 0
263 1 Si 101.682 23.6682 1.65683 0
264 1 Si 121.466 24.6442 1.62833 0
265 1 Si 115.871 24.6252 1.62967 0
266 1 Si 118.593 26.1871 1.62552 0
267 1 Si 126.58 27.1919 1.63832 0
268 1 Si 123.309 27.3967 1.63918 0
269 1 Si 132.412 27.4737 1.62373 0
270 1 Si 135.502 27.3107 1.61569 0
271 1 Si 141.443 26.5813 1.62447 0
272 1 Si 144.538 25.8401 1.64241 0
273 1 Si 156.358 22.4017 1.61959 0
274 1 Si 150.704 24.0032 1.64822 0
275 1 Si 153.849 24.39 1.62729 0
276 1 Si 159.419 23.4443 1.61188 0
277 1 Si 172.416 22.893 1.6087 0
278 1 Si 180.608 25.5813 1.62601 0
279 1 Si 177.507 25.0543 1.61293 0
280 1 Si 187.33 25.7376 1.65442 0
281 1 Si 2.9257 25.2818 1.6412 0
282 1 Si 0.621419 28.0123 1.6271 0
283 1 Si 112.849 25.6708 1.62319 0
284 1 Si 107.961 28.6991 1.62224 0
285 1 Si 111.28 28.5112 1.63231 0
286 1 Si 131.356 30.3824 1.61143 0
287 1 Si 128.123 30.2106 1.64087 0
288 1 Si 137.115 29.9328 1.62736 0
289 1 Si 140.313 29.639 1.6606 0
290 1 Si 146.782 28.0655 1.6144 0
291 1 Si 149.686 26.9949 1.61696 0
292 1 Si 8.6643 6.1669 1.63652 0
293 1 Si 9.30784 9.39296 1.63398 0
294 1 Si 11.1197 4.1697 1.61359 0
295 1 Si 10.7346 0.974139 1.61764 0
296 1 Si 7.40021 0.242384 1.63831 0
297 1 Si 14.0921 5.35399 1.61488 0
298 1 Si 14.6244 8.5434 1.61689 0
299 1 Si 12.2478 10.7476 1.62798 0
300 1 Si 15.8415 2.61756 1.62011 0
301 1 Si 13.9185 178.812 1.63665 0
302 1 Si 154.329 27.5593 1.62824 0
303 1 Si 159.403 26.6368 1.6066 0
304 1 Si 157.122 28.9664 1.63696 0
305 1 Si 19.5563 7.16773 1.63761 0
306 1 Si 19.0158 3.46099 1.64568 0
307 1 Si 17.4906 10.0563 1.61054 0
308 1 Si 24.1338 5.09831 1.64365 0
309 1 Si 22.7203 8.1385 1.62724 0
310 1 Si 23.76 1.79204 1.62857 0
311 1 Si 20.8549 0.37039 1.624 0
312 1 Si 27.2489 4.95357 1.61688 0
313 1 Si 29.2572 7.34079 1.62466 0
314 1 Si 27.7255 10.2745 1.61583 0
315 1 Si 24.4169 11.2177 1.63327 0
316 1 Si 28.5039 2.04085 1.61484 0
317 1 Si 26.3353 178.704 1.62793 0
318 1 Si 172.588 26.1415 1.64165 0
319 1 Si 169.574 27.4139 1.62146 0
320 1 Si 32.2219 5.92997 1.62603 0
321 1 Si 35.3364 7.0301 1.63506 0
322 1 Si 36.3491 10.1348 1.63069 0
323 1 Si 33.6816 12.0402 1.62786 0
324 1 Si 30.3703 12.1266 1.64439 0
325 1 Si 31.5932 2.7175 1.63559 0
326 1 Si 37.6323 4.70347 1.62941 0
327 1 Si 36.5922 1.62771 1.62508 0
328 1 Si 33.6378 0.266588 1.64685 0
329 1 Si 40.9053 4.70992 1.61949 0
330 1 Si 41.7494 1.5851 1.61488 0
331 1 Si 39.1181 178.669 1.6389 0
332 1 Si 43.4791 6.79645 1.6267 0
333 1 Si 42.5316 9.93205 1.63549 0
334 1 Si 39.5214 11.4272 1.62961 0
335 1 Si 46.8508 6.17436 1.6264 0
336 1 Si 47.7029 3.1061 1.62394 0
337 1 Si 44.9698 1.26869 1.62662 0
338 1 Si 185.422 28.3039 1.61938 0
339 1 Si 182.123 28.3753 1.63466 0
340 1 Si 49.8878 7.76795 1.62867 0
341 1 Si 45.5157 11.1527 1.60197 0
342 1 Si 48.6684 10.6079 1.61816 0
343 1 Si 50.9732 2.40835 1.6325 0
344 1 Si 51.8952 178.255 1.62051 0
345 1 Si 49.1148 176.7 1.61486 0
346 1 Si 45.9807 177.304 1.6419 0
347 1 Si 53.5677 4.42415 1.6246 0
348 1 Si 53.3074 7.71542 1.62075 0
349 1 Si 56.5291 3.14231 1.62911 0
350 1 Si 57.4646 0.00559534 1.61199 0
351 1 Si 54.9286 176.782 1.64033 0
352 1 Si 58.9401 5.24397 1.61322 0
353 1 Si 59.0898 8.53418 1.63054 0
354 1 Si 56.0644 10.0044 1.64303 0
355 1 Si 61.684 3.6111 1.59589 0
356 1 Si 60.7998 0.345705 1.63547 0
357 1 Si 63.5754 6.3931 1.62747 0
358 1 Si 62.2924 9.57009 1.62576 0
359 1 Si 66.7642 5.82472 1.63792 0
360 1 Si 67.5493 2.09379 1.65095 0
361 1 Si 62.9596 176.795 1.62581 0
362 1 Si 66.2672 177.603 1.62303 0
363 1 Si 6.39788 25.5567 1.61893 0
364 1 Si 7.37769 19.9258 1.63363 0
365 1 Si 8.30584 22.9231 1.61144 0
366 1 Si 71.522 5.1358 1.63212 0
367 1 Si 70.7862 1.84465 1.62782 0
368 1 Si 71.3161 8.43847 1.64313 0
369 1 Si 68.1804 9.16413 1.62308 0
370 1 Si 74.4262 4.26283 1.5964 0
371 1 Si 75.324 1.28126 1.58083 0
372 1 Si 73.0221 178.127 1.65276 0
373 1 Si 106.385 31.701 1.63381 0
374 1 Si 103.056 32.3285 1.61974 0
375 1 Si 101.471 29.3031 1.62058 0
376 1 Si 76.9528 6.0622 1.60686 0
377 1 Si 76.7827 9.24391 1.62657 0
378 1 Si 73.7884 10.6922 1.62872 0
379 1 Si 77.8985 3.04743 1.65133 0
380 1 Si 82.5032 4.86363 1.62965 0
381 1 Si 80.7766 1.92099 1.62767 0
382 1 Si 82.541 8.43762 1.63642 0
383 1 Si 79.7726 10.5544 1.61337 0
384 1 Si 84.7135 2.51119 1.61971 0
385 1 Si 81.1308 177.541 1.60734 0
386 1 Si 84.1721 178.325 1.61209 0
387 1 Si 89.0877 5.62448 1.62681 0
388 1 Si 87.8517 2.65572 1.63458 0
389 1 Si 88.4841 8.8678 1.64132 0
390 1 Si 85.4312 10.313 1.62656 0
391 1 Si 93.4267 1.79916 1.62019 0
392 1 Si 96.5002 2.13427 1.61482 0
393 1 Si 92.0807 4.6506 1.61808 0
394 1 Si 97.1275 5.18027 1.62063 0
395 1 Si 94.4351 6.6679 1.63726 0
396 1 Si 92.2899 177.833 1.62891 0
397 1 Si 99.0018 0.250262 1.62849 0
398 1 Si 94.4679 175.347 1.63223 0
399 1 Si 97.7906 176.111 1.6304 0
400 1 Si 89.1787 178.649 1.62753 0
401 1 Si 134.352 31.6141 1.63909 0
402 1 Si 142.089 32.3394 1.61447 0
403 1 Si 147.589 31.147 1.63592 0
404 1 Si 145.189 33.0988 1.62058 0
405 1 Si 151.76 29.3277 1.63163 0
406 1 Si 162.584 27.0591 1.60832 0
407 1 Si 175.494 27.6401 1.64329 0
408 1 Si 190.717 30.979 1.62774 0
409 1 Si 187.427 30.8156 1.62425 0
410 1 Si 2.06196 31.1666 1.62609 0
411 1 Si 5.62268 32.0152 1.61872 0
412 1 Si 9.09636 27.5569 1.63039 0
413 1 Si 9.04842 30.8247 1.6341 0
414 1 Si 126.933 33.2246 1.59805 0
415 1 Si 94.4537 9.74509 1.63886 0
416 1 Si 91.2786 10.7096 1.63661 0
417 1 Si 134.93 34.6764 1.63552 0
418 1 Si 137.879 35.9787 1.61425 0
419 1 Si 141.039 35.3777 1.62711 0
420 1 Si 150.625 32.2221 1.63871 0
421 1 Si 163.057 30.1898 1.63978 0
422 1 Si 157.3 32.2569 1.62542 0
423 1 Si 160.518 32.1948 1.61747 0
424 1 Si 13.374 13.8421 1.61177 0
425 1 Si 12.0467 16.8984 1.62998 0
426 1 Si 8.89048 17.0917 1.63861 0
427 1 Si 16.6528 13.5424 1.6108 0
428 1 Si 165.984 31.587 1.62076 0
429 1 Si 169.209 30.9634 1.63309 0
430 1 Si 23.3756 14.8075 1.63316 0
431 1 Si 17.6674 16.9081 1.62858 0
432 1 Si 20.9006 17.1497 1.62983 0
433 1 Si 35.0947 14.87 1.62159 0
434 1 Si 28.1348 14.3878 1.55043 0
435 1 Si 32.1913 15.646 1.58843 0
436 1 Si 176.589 30.8771 1.63235 0
437 1 Si 180.007 30.9217 1.62262 0
438 1 Si 39.9458 14.7082 1.63365 0
439 1 Si 37.549 16.7797 1.63809 0
440 1 Si 47.1781 13.7964 1.62632 0
441 1 Si 42.4359 16.6871 1.60503 0
442 1 Si 45.5018 16.2926 1.60655 0
443 1 Si 50.2628 13.3353 1.62004 0
444 1 Si 192.348 33.827 1.6213 0
445 1 Si 195.691 34.0537 1.63783 0
446 1 Si 56.1533 13.5226 1.62764 0
447 1 Si 53.0812 14.8179 1.6226 0
448 1 Si 63.9271 12.8299 1.63042 0
449 1 Si 58.7066 15.9906 1.61574 0
450 1 Si 62.1799 15.9855 1.62712 0
451 1 Si 202.357 33.7943 1.6483 0
452 1 Si 205.738 33.5726 1.63733 0
453 1 Si 67.4454 12.642 1.62442 0
454 1 Si 73.4418 14.0619 1.63233 0
455 1 Si 70.2098 15.3752 1.62547 0
456 1 Si 108.327 34.3832 1.63756 0
457 1 Si 79.4089 13.9727 1.61897 0
458 1 Si 76.4144 15.8375 1.63613 0
459 1 Si 85.3212 13.7603 1.62546 0
460 1 Si 82.382 15.5086 1.63785 0
461 1 Si 91.1745 13.9241 1.62767 0
462 1 Si 94.3847 14.65 1.63485 0
463 1 Si 127.113 36.3904 1.64342 0
464 1 Si 132.314 36.5164 1.58035 0
465 1 Si 129.589 38.1927 1.64487 0
466 1 Si 155.59 35.2056 1.64319 0
467 1 Si 152.201 35.0546 1.6347 0
468 1 Si 25.0254 17.6831 1.59347 0
469 1 Si 29.3272 16.5913 1.61132 0
470 1 Si 27.8542 19.2269 1.61204 0
471 1 Si 162.011 34.9243 1.62585 0
472 1 Si 165.141 34.6062 1.61084 0
473 1 Si 171.127 34.1416 1.63804 0
474 1 Si 174.584 33.8037 1.63958 0
475 1 Si 185.301 33.1639 1.63464 0
476 1 Si 182.08 33.3717 1.62533 0
477 1 Si 190.119 36.2075 1.6504 0
478 1 Si 186.912 35.8385 1.61941 0
479 1 Si 197.057 37.1304 1.63724 0
480 1 Si 200.377 36.636 1.63315 0
481 1 Si 0.516029 36.6279 1.64001 0
482 1 Si 3.62381 37.3335 1.62124 0
483 1 Si 6.12144 35.2662 1.62839 0
484 1 Si 107.329 37.504 1.63108 0
485 1 Si 104.159 38.3134 1.62076 0
486 1 Si 101.89 35.6847 1.6483 0
487 1 Si 88.2163 15.568 1.64297 0
488 1 Si 95.2014 17.6425 1.63539 0
489 1 Si 98.3266 17.4323 1.62492 0
490 1 Si 133.824 39.2248 1.62663 0
491 1 Si 136.94 38.9834 1.61843 0
492 1 Si 16.3051 20.2493 1.63048 0
493 1 Si 13.1131 20.0566 1.63372 0
494 1 Si 143.565 37.4607 1.6254 0
495 1 Si 146.441 36.0453 1.61588 0
496 1 Si 21.2536 20.4786 1.58306 0
497 1 Si 16.9913 23.7648 1.62949 0
498 1 Si 20.2091 23.65 1.64145 0
499 1 Si 24.4 20.8918 1.59146 0
500 1 Si 160.723 37.74 1.62335 0
501 1 Si 157.44 38.0929 1.63814 0
502 1 Si 31.7413 18.5872 1.58712 0
503 1 Si 37.1179 19.9712 1.65344 0
504 1 Si 33.999 20.4437 1.59317 0
505 1 Si 166.479 37.4263 1.61653 0
506 1 Si 169.682 37.6951 1.64288 0
507 1 Si 43.5191 19.691 1.63825 0
508 1 Si 38.6185 22.8392 1.61711 0
509 1 Si 41.9279 22.4475 1.61155 0
510 1 Si 175.876 36.8809 1.63638 0
511 1 Si 181.582 36.5094 1.62873 0
512 1 Si 178.866 38.1479 1.64562 0
513 1 Si 46.6706 19.1612 1.624 0
514 1 Si 52.4284 17.9559 1.60568 0
515 1 Si 49.7977 19.7048 1.61124 0
516 1 Si 57.9008 19.2725 1.61801 0
517 1 Si 54.705 20.1645 1.6241 0
518 1 Si 63.4556 19.3446 1.61982 0
519 1 Si 60.5744 21.3493 1.62213 0
520 1 Si 195.676 40.34 1.61348 0
521 1 Si 190.586 39.3471 1.63203 0
522 1 Si 192.718 41.6946 1.64089 0
523 1 Si 70.1863 19.0584 1.6283 0
524 1 Si 67.0237 20.7446 1.63567 0
525 1 Si 201.646 39.6573 1.63998 0
526 1 Si 204.842 39.2895 1.6172 0
527 1 Si 76.4306 19.3607 1.63003 0
528 1 Si 73.3706 21.0719 1.62649 0
529 1 Si 109.54 39.8926 1.61283 0
530 1 Si 112.731 39.4289 1.62253 0
531 1 Si 82.2095 18.845 1.63224 0
532 1 Si 79.5922 20.9212 1.62082 0
533 1 Si 87.9466 18.9326 1.63428 0
534 1 Si 85.0221 20.5241 1.60917 0
535 1 Si 93.6081 20.3416 1.62793 0
536 1 Si 90.4722 21.0461 1.61783 0
537 1 Si 99.7745 20.0706 1.5929 0
538 1 Si 128.843 41.3129 1.60625 0
539 1 Si 131.953 41.7012 1.60959 0
540 1 Si 138.375 41.707 1.61987 0
541 1 Si 143.888 40.6642 1.63949 0
542 1 Si 141.394 42.5805 1.63124 0
543 1 Si 149.565 37.0396 1.63922 0
544 1 Si 163.704 39.0763 1.62603 0
545 1 Si 169.927 41.2892 1.6422 0
546 1 Si 174.362 39.6805 1.5654 0
547 1 Si 172.776 42.4563 1.62013 0
548 1 Si 184.449 37.8209 1.61902 0
549 1 Si 200.136 42.63 1.61591 0
550 1 Si 196.915 43.406 1.62942 0
551 1 Si 0.622782 41.8592 1.61776 0
552 1 Si 3.62053 40.5783 1.62642 0
553 1 Si 109.436 43.1266 1.62539 0
554 1 Si 106.49 44.3218 1.64039 0
555 1 Si 104.174 41.747 1.64327 0
556 1 Si 95.5086 22.8701 1.61494 0
557 1 Si 98.6302 22.9394 1.60661 0
558 1 Si 114.323 42.2488 1.61986 0
559 1 Si 117.547 42.5612 1.63475 0
560 1 Si 123.533 43.9204 1.64194 0
561 1 Si 126.803 43.8317 1.64285 0
562 1 Si 11.5136 22.9388 1.61489 0
563 1 Si 133.367 44.4894 1.62987 0
564 1 Si 136.464 44.2109 1.62756 0
565 1 Si 12.1102 26.1061 1.61662 0
566 1 Si 15.3059 26.9533 1.62393 0
567 1 Si 24.8533 24.172 1.62827 0
568 1 Si 22.2605 26.2816 1.61867 0
569 1 Si 149.54 40.2179 1.59551 0
570 1 Si 146.831 41.8588 1.59269 0
571 1 Si 30.5056 21.2957 1.61308 0
572 1 Si 30.6578 24.4212 1.61496 0
573 1 Si 27.6861 25.6556 1.60802 0
574 1 Si 151.084 42.9824 1.63279 0
575 1 Si 156.89 41.3728 1.62694 0
576 1 Si 154.246 43.6354 1.62548 0
577 1 Si 36.6333 25.6873 1.63753 0
578 1 Si 33.1883 26.4912 1.62004 0
579 1 Si 163.377 42.1808 1.63982 0
580 1 Si 166.305 43.7601 1.57757 0
581 1 Si 169.483 44.8266 1.60565 0
582 1 Si 44.0196 24.9245 1.62692 0
583 1 Si 42.0151 27.4944 1.60441 0
584 1 Si 38.7445 28.2268 1.6327 0
585 1 Si 52.0242 21.9341 1.62432 0
586 1 Si 50.6042 24.7462 1.63279 0
587 1 Si 47.3193 25.3722 1.60157 0
588 1 Si 176.154 42.26 1.59443 0
589 1 Si 179.065 41.3315 1.60464 0
590 1 Si 60.0031 24.8965 1.62845 0
591 1 Si 53.4169 26.4834 1.59798 0
592 1 Si 56.9174 26.4541 1.62623 0
593 1 Si 185.171 40.7902 1.64523 0
594 1 Si 188.189 41.3518 1.6143 0
595 1 Si 67.6414 24.1427 1.62283 0
596 1 Si 62.4268 27.471 1.63377 0
597 1 Si 65.5774 26.7351 1.63584 0
598 1 Si 73.7091 24.6868 1.64033 0
599 1 Si 70.5809 25.7667 1.62794 0
600 1 Si 81.1837 24.0494 1.63182 0
601 1 Si 76.45 27.5181 1.62905 0
602 1 Si 79.9018 27.2501 1.62932 0
603 1 Si 205.318 44.7934 1.63643 0
604 1 Si 202 45.3193 1.62411 0
605 1 Si 84.6033 23.8305 1.61481 0
606 1 Si 112.249 44.7665 1.61899 0
607 1 Si 90.2528 24.3132 1.61153 0
608 1 Si 87.3868 25.9666 1.63564 0
609 1 Si 118.426 45.8291 1.62222 0
610 1 Si 121.561 46.7468 1.62125 0
611 1 Si 128.328 46.6411 1.63575 0
612 1 Si 131.509 47.0001 1.61933 0
613 1 Si 138.335 46.6559 1.62907 0
614 1 Si 141.346 45.7201 1.61902 0
615 1 Si 148.32 44.6618 1.62265 0
616 1 Si 160.016 42.5381 1.63588 0
617 1 Si 174.854 45.3769 1.58122 0
618 1 Si 180.698 43.9772 1.62514 0
619 1 Si 183.721 43.5015 1.61001 0
620 1 Si 188.234 44.5148 1.62849 0
621 1 Si 191.352 44.7183 1.63813 0
622 1 Si 93.3654 25.1533 1.62125 0
623 1 Si 1.17201 47.3048 1.63129 0
624 1 Si 4.44953 47.4584 1.62628 0
625 1 Si 6.57819 41.8301 1.62903 0
626 1 Si 6.9022 45.1011 1.62664 0
627 1 Si 106.703 47.7223 1.61549 0
628 1 Si 103.64 48.566 1.62471 0
629 1 Si 101.285 43.1337 1.62031 0
630 1 Si 101.358 46.3297 1.61376 0
631 1 Si 113.169 47.9354 1.61474 0
632 1 Si 116.392 48.4333 1.61698 0
633 1 Si 121.735 50.2412 1.62365 0
634 1 Si 127.207 49.5908 1.61662 0
635 1 Si 124.658 51.4892 1.64502 0
636 1 Si 22.1456 29.8208 1.631 0
637 1 Si 15.8043 30.4813 1.62791 0
638 1 Si 19.3784 32.1109 1.6355 0
639 1 Si 132.396 50.0385 1.63295 0
640 1 Si 137.86 49.7089 1.61967 0
641 1 Si 135.198 51.4611 1.63447 0
642 1 Si 27.8786 28.8796 1.60983 0
643 1 Si 25.3386 31.0848 1.63653 0
644 1 Si 31.1833 29.2366 1.63066 0
645 1 Si 143.486 48.0127 1.62154 0
646 1 Si 146.758 47.537 1.64048 0
647 1 Si 159.61 45.6108 1.63634 0
648 1 Si 154.07 47.0162 1.62483 0
649 1 Si 157.166 47.6426 1.6295 0
650 1 Si 44.5437 29.5364 1.62285 0
651 1 Si 37.777 31.4327 1.63496 0
652 1 Si 40.3639 33.2982 1.614 0
653 1 Si 43.4241 32.4511 1.64186 0
654 1 Si 47.6292 28.5308 1.58795 0
655 1 Si 165.502 46.769 1.62521 0
656 1 Si 162.437 46.9193 1.60718 0
657 1 Si 50.8831 28.6561 1.63233 0
658 1 Si 170.606 48.3666 1.62713 0
659 1 Si 167.559 49.1294 1.63759 0
660 1 Si 57.5372 29.6229 1.6077 0
661 1 Si 51.9686 31.5613 1.62776 0
662 1 Si 55.09 31.5262 1.61406 0
663 1 Si 176.824 47.9757 1.64368 0
664 1 Si 179.959 47.0609 1.60961 0
665 1 Si 59.5547 32.168 1.63863 0
666 1 Si 62.4832 31.0399 1.64171 0
667 1 Si 70.1926 28.9786 1.60544 0
668 1 Si 67.0796 29.5816 1.60183 0
669 1 Si 185.477 46.0889 1.59025 0
670 1 Si 76.3428 31.0232 1.61883 0
671 1 Si 71.2487 32.0115 1.62422 0
672 1 Si 74.0789 33.3127 1.63624 0
673 1 Si 81.9684 30.2467 1.6133 0
674 1 Si 78.0041 34.0331 1.63508 0
675 1 Si 81.1087 33.4836 1.62423 0
676 1 Si 87.8099 29.4312 1.63728 0
677 1 Si 85.1658 31.384 1.63272 0
678 1 Si 195.231 46.4051 1.62679 0
679 1 Si 200.113 48.0799 1.62128 0
680 1 Si 196.97 49.0366 1.63393 0
681 1 Si 95.3744 27.5782 1.62717 0
682 1 Si 93.4979 30.0363 1.57899 0
683 1 Si 90.6669 31.3084 1.61727 0
684 1 Si 108.355 50.7018 1.63812 0
685 1 Si 111.706 50.9262 1.62961 0
686 1 Si 98.1877 29.0841 1.64703 0
687 1 Si 116.825 51.6909 1.61815 0
688 1 Si 119.759 53.1035 1.63479 0
689 1 Si 12.4751 32.0645 1.62883 0
690 1 Si 129.681 51.5567 1.61908 0
691 1 Si 31.9841 32.3977 1.62179 0
692 1 Si 35.1194 33.3932 1.62375 0
693 1 Si 141.055 50.1524 1.63146 0
694 1 Si 148.732 50.0962 1.62775 0
695 1 Si 152.026 49.6933 1.63207 0
696 1 Si 158.516 50.4857 1.60194 0
697 1 Si 161.515 49.8384 1.60657 0
698 1 Si 175.81 51.1708 1.61572 0
699 1 Si 172.441 51.5556 1.63442 0
700 1 Si 183.03 48.1724 1.64657 0
701 1 Si 192.161 47.8768 1.60715 0
702 1 Si 96.231 31.515 1.59518 0
703 1 Si 200.25 51.3131 1.63613 0
704 1 Si 205.873 50.1557 1.5969 0
705 1 Si 203.27 51.9365 1.63548 0
706 1 Si 12.2646 35.3801 1.63384 0
707 1 Si 9.13087 36.4896 1.61131 0
708 1 Si 106.211 53.2992 1.62059 0
709 1 Si 103.336 51.7633 1.61759 0
710 1 Si 114.063 53.4406 1.60334 0
711 1 Si 20.2975 35.7721 1.62362 0
712 1 Si 14.5304 37.8611 1.61964 0
713 1 Si 17.9482 38.5203 1.63938 0
714 1 Si 26.2342 34.3551 1.65362 0
715 1 Si 23.7207 36.7757 1.62631 0
716 1 Si 125.551 54.5872 1.59102 0
717 1 Si 128.695 54.48 1.61957 0
718 1 Si 29.6688 34.7485 1.60414 0
719 1 Si 141.257 53.2432 1.633 0
720 1 Si 135.463 54.6407 1.62885 0
721 1 Si 138.623 55.0287 1.62817 0
722 1 Si 40.4356 36.4813 1.62516 0
723 1 Si 35.2983 36.6742 1.61242 0
724 1 Si 38.0728 38.588 1.63633 0
725 1 Si 144.245 54.2183 1.63461 0
726 1 Si 147.108 52.9187 1.63465 0
727 1 Si 45.3181 34.9301 1.60102 0
728 1 Si 43.4015 37.4175 1.61476 0
729 1 Si 153.062 52.7363 1.62938 0
730 1 Si 158.602 53.6553 1.64849 0
731 1 Si 155.649 54.5136 1.62699 0
732 1 Si 50.8355 34.4931 1.61057 0
733 1 Si 48.176 36.1467 1.63699 0
734 1 Si 55.8029 34.5509 1.63044 0
735 1 Si 53.3349 36.4249 1.61798 0
736 1 Si 163.427 52.1472 1.59472 0
737 1 Si 166.504 52.0103 1.59954 0
738 1 Si 58.798 35.3794 1.61882 0
739 1 Si 66.741 32.7473 1.64139 0
740 1 Si 63.9907 34.2686 1.63231 0
741 1 Si 69.3158 34.5831 1.62254 0
742 1 Si 183.97 51.2165 1.63111 0
743 1 Si 181.407 53.3663 1.61215 0
744 1 Si 178.056 53.8171 1.62971 0
745 1 Si 74.2939 36.5803 1.6271 0
746 1 Si 77.3308 37.4461 1.60604 0
747 1 Si 187.238 52.0256 1.62113 0
748 1 Si 190.526 50.9857 1.62482 0
749 1 Si 85.7997 34.7259 1.61325 0
750 1 Si 82.9518 36.2616 1.61073 0
751 1 Si 92.6829 34.0074 1.63992 0
752 1 Si 88.2189 37.0056 1.62154 0
753 1 Si 91.4225 36.8572 1.62353 0
754 1 Si 95.9614 34.5547 1.6292 0
755 1 Si 98.5554 36.5217 1.635 0
756 1 Si 195.594 52.0722 1.63272 0
757 1 Si 198.171 53.8644 1.63736 0
758 1 Si 1.72117 52.5912 1.59029 0
759 1 Si 4.29944 50.7155 1.62669 0
760 1 Si 106.267 56.6872 1.643 0
761 1 Si 109.144 58.3565 1.61505 0
762 1 Si 114.904 56.8181 1.63178 0
763 1 Si 112.366 58.7233 1.64769 0
764 1 Si 9.12536 39.7161 1.61412 0
765 1 Si 12.2865 40.2729 1.6298 0
766 1 Si 120.175 56.6182 1.62187 0
767 1 Si 125.474 57.8211 1.64485 0
768 1 Si 122.548 59.0251 1.62791 0
769 1 Si 133.37 57.094 1.63564 0
770 1 Si 130.225 57.1826 1.61645 0
771 1 Si 32.034 37.0545 1.62989 0
772 1 Si 139.334 58.0138 1.60486 0
773 1 Si 144.506 57.3528 1.62384 0
774 1 Si 142.144 59.2992 1.63968 0
775 1 Si 148.442 55.7944 1.62649 0
776 1 Si 151.472 55.4566 1.63088 0
777 1 Si 163.347 55.2097 1.59713 0
778 1 Si 160.49 56.2868 1.65664 0
779 1 Si 166.416 55.0947 1.64507 0
780 1 Si 171.513 55.0941 1.61283 0
781 1 Si 168.653 57.2228 1.63224 0
782 1 Si 186.475 55.1881 1.64273 0
783 1 Si 183.326 55.9607 1.63079 0
784 1 Si 192.642 53.6144 1.61592 0
785 1 Si 203.254 55.0904 1.61158 0
786 1 Si 0.227698 55.3832 1.63408 0
787 1 Si 103.504 58.7248 1.62906 0
788 1 Si 100.235 52.4948 1.61811 0
789 1 Si 98.6792 55.276 1.6312 0
790 1 Si 100.055 58.1661 1.62947 0
791 1 Si 24.844 40.0647 1.6268 0
792 1 Si 18.641 42.1035 1.60796 0
793 1 Si 21.1158 44.7819 1.64273 0
794 1 Si 24.0312 43.401 1.63884 0
795 1 Si 31.1476 40.0669 1.65492 0
796 1 Si 27.9826 40.7453 1.60237 0
797 1 Si 137.264 60.3077 1.61531 0
798 1 Si 134.191 60.1719 1.62432 0
799 1 Si 44.7861 40.2404 1.62416 0
800 1 Si 39.3074 41.7752 1.62846 0
801 1 Si 42.6974 42.7975 1.62773 0
802 1 Si 47.9187 39.3814 1.64421 0
803 1 Si 147.266 58.7306 1.62685 0
804 1 Si 53.4377 39.5728 1.61931 0
805 1 Si 50.6101 41.19 1.62409 0
806 1 Si 59.0086 38.676 1.63231 0
807 1 Si 56.4437 40.7807 1.63057 0
808 1 Si 152.601 58.3641 1.63336 0
809 1 Si 155.586 57.6413 1.61409 0
810 1 Si 64.2441 37.8082 1.64577 0
811 1 Si 61.9054 40.1472 1.63017 0
812 1 Si 69.5192 37.805 1.63311 0
813 1 Si 66.9733 39.7667 1.64281 0
814 1 Si 72.4052 39.2174 1.6275 0
815 1 Si 82.9722 39.6372 1.61873 0
816 1 Si 77.7856 40.9259 1.63439 0
817 1 Si 80.7876 42.0755 1.62448 0
818 1 Si 88.3598 40.2696 1.63083 0
819 1 Si 85.5153 41.7045 1.61964 0
820 1 Si 173.805 57.4805 1.61024 0
821 1 Si 177.136 57.1824 1.63026 0
822 1 Si 93.5226 39.3113 1.61719 0
823 1 Si 91.3413 41.6491 1.61978 0
824 1 Si 96.8042 39.3197 1.62937 0
825 1 Si 191.762 56.9962 1.62799 0
826 1 Si 188.559 57.6466 1.63282 0
827 1 Si 98.16 42.2289 1.61642 0
828 1 Si 198.034 57.1659 1.60882 0
829 1 Si 201.196 57.4794 1.62815 0
830 1 Si 12.7881 43.4095 1.63123 0
831 1 Si 10.1988 45.4829 1.61856 0
832 1 Si 16.0045 44.0494 1.62351 0
833 1 Si 1.12341 58.3647 1.61932 0
834 1 Si 4.22374 58.9164 1.60215 0
835 1 Si 6.48991 52.9358 1.6484 0
836 1 Si 5.95418 56.1662 1.63292 0
837 1 Si 109.728 61.4629 1.58289 0
838 1 Si 109.257 64.5682 1.63982 0
839 1 Si 106.126 64.735 1.62114 0
840 1 Si 104.16 61.981 1.61817 0
841 1 Si 117.741 58.8376 1.61249 0
842 1 Si 33.5802 42.1766 1.59539 0
843 1 Si 28.3603 43.8317 1.6097 0
844 1 Si 31.378 44.3818 1.61917 0
845 1 Si 36.5172 43.525 1.63342 0
846 1 Si 128.192 59.646 1.6089 0
847 1 Si 138.965 62.8411 1.62287 0
848 1 Si 142.029 62.3699 1.61992 0
849 1 Si 151.336 61.2278 1.64547 0
850 1 Si 148.226 61.7432 1.6368 0
851 1 Si 157.465 60.0611 1.63063 0
852 1 Si 160.532 59.4985 1.58669 0
853 1 Si 166.793 60.3733 1.60043 0
854 1 Si 172.482 60.4241 1.65396 0
855 1 Si 169.578 61.7994 1.62754 0
856 1 Si 179.225 60.0616 1.62066 0
857 1 Si 182.354 59.0834 1.61992 0
858 1 Si 193.185 60.1097 1.64095 0
859 1 Si 196.394 60.086 1.6371 0
860 1 Si 202.26 60.3937 1.62128 0