LAMMPS data file via write_data, version 2 Aug 2023, timestep = 133, units = metal

15276 atoms
2 atom types

7.7383360983314775 195.76686712090648 xlo xhi
6.017931155775668 168.68102189071968 ylo yhi
-100 100 zlo zhi

Masses

1 28.085
2 15.999

Atoms # full

6512 1 1 0 8.471861288432118 7.82399820985814 -1.646074789664285 0 0 0
9161 1 2 0 9.368567642081755 6.50406622553706 -2.17699400680979 0 0 0
9159 1 2 0 9.430932987318569 9.15915828395042 -2.123152221245822 0 0 0
6511 1 1 0 10.32611554812587 10.538197786998888 -1.6446930580860957 0 0 0
9160 1 2 0 11.9315377999001 10.911139806848126 -2.13553092536437 0 0 0
9153 1 2 0 9.38819602975208 11.793236951661692 -2.2141934730185633 0 0 0
9581 1 2 0 14.591917967470236 7.200987324955442 -2.1568619652985492 0 0 0
6788 1 1 0 15.362054468260835 8.647488139672497 -1.6476662482516296 0 0 0
9578 1 2 0 14.54179528555468 10.069593612976629 -2.1209557165690374 0 0 0
6790 1 1 0 18.613914724434405 8.784132228561235 -1.6497785933699107 0 0 0
9580 1 2 0 16.99112191258067 8.699650344220172 -2.157271270933179 0 0 0
6787 1 1 0 13.52377962926874 11.36242886289133 -1.6466916749004528 0 0 0
9585 1 2 0 19.518025287279514 7.431166981792361 -2.15003969505197 0 0 0
6799 1 1 0 20.650113504851728 6.27096660775605 -1.6504061665874095 0 1 0
9597 1 2 0 22.19822412298949 6.670873373913497 -2.209917634513616 0 0 0
6798 1 1 0 23.61324323259821 7.232059543973064 -1.5080893809237397 0 0 0
9582 1 2 0 19.345208403148387 10.230931687338689 -2.1763151068998376 0 0 0
9595 1 2 0 23.659449782009425 8.860301749300962 -1.3636575989486637 0 0 0
6797 1 1 0 23.414686974372717 10.454007402509731 -1.502676404983294 0 0 0
6789 1 1 0 20.617550948890262 11.220345350805113 -1.644581798209697 0 0 0
9584 1 2 0 21.97558362175514 10.527698365522948 -2.2987844934171204 0 0 0
13164 1 2 0 20.658272394585758 6.272577929660874 -5.990005875151062e-07 0 1 0
9598 1 2 0 25.082585362355204 7.0035686679725115 -2.278422552734793 0 0 0
6804 1 1 0 26.589611605102878 7.429139395591237 -1.6509710772461017 0 0 0
9606 1 2 0 27.537069176888714 6.1764938439396335 -2.165676508976122 0 1 0
9604 1 2 0 27.415620064229923 8.766753081801665 -2.2119357967698097 0 0 0
6803 1 1 0 28.260835072960127 10.097795254093446 -1.6466988074955984 0 0 0
9596 1 2 0 24.67740501056621 11.196313019545597 -2.265037887167505 0 0 0
9602 1 2 0 27.40245930746851 11.418110654341351 -2.1927333395141613 0 0 0
9605 1 2 0 29.840879454648483 10.243948094098076 -2.1859066337177055 0 0 0
6810 1 1 0 34.41811243250477 6.332788860744525 -1.6452255999923509 0 0 0
9614 1 2 0 33.835309529162 7.799871439205621 -2.1773718756085296 0 0 0
9608 1 2 0 32.62375079852259 10.301339332880207 -2.1887885923405515 0 0 0
6809 1 1 0 33.94176070838263 9.387589458831169 -1.647595642763535 0 0 0
6805 1 1 0 31.202679308084313 11.079744085051086 -1.6466910408369093 0 0 0
13175 1 2 0 34.47165853436708 6.355361977463355 -1.286971846937068e-06 0 0 0
13170 1 2 0 31.285398542711533 11.016238950981386 -3.0089450789625497e-07 0 0 0
9631 1 2 0 38.64708335161355 6.416100153665925 -2.1617199355316394 0 0 0
6819 1 1 0 39.27277132436317 7.842239827304151 -1.6386034404217993 0 0 0
9615 1 2 0 35.454516204601376 9.903346706271849 -2.1860194124729193 0 0 0
6816 1 1 0 37.03908366305277 10.013640848248706 -1.6397138329211896 0 0 0
9627 1 2 0 38.19454818021526 8.966185011490582 -2.2329914388529586 0 0 0
9626 1 2 0 37.67850095201097 11.444654022047557 -2.137156020238495 0 0 0
9632 1 2 0 40.85112773529801 7.8468791972505745 -2.194151808391309 0 0 0
13181 1 2 0 36.98116652346259 9.866878970367797 -5.711524854953807e-07 0 0 0
13184 1 2 0 39.32798471667083 7.989953831196038 1.1532331127963498e-07 0 0 0
6829 1 1 0 42.3187836391674 7.239178448952934 -1.6494885850952299 0 0 0
9645 1 2 0 43.53003921697907 8.253582925237264 -2.1857311703305773 0 0 0
6827 1 1 0 44.65533540640164 9.36657161176044 -1.647575177089926 0 0 0
9646 1 2 0 46.189378532043136 8.951722821768717 -2.2089183459893142 0 0 0
9644 1 2 0 44.22717084642687 10.889342718479089 -2.1871760839414045 0 0 0
13194 1 2 0 42.31256164554946 7.2068812641969515 -7.161804580257106e-07 0 0 0
6830 1 1 0 47.464262275952 8.028802221120355 -1.644534629391885 0 0 0
9650 1 2 0 47.31615244745212 6.488646880409012 -2.247044726438821 0 0 0
9649 1 2 0 49.01256251845851 8.490805186491388 -2.1233216061506957 0 0 0
6833 1 1 0 50.39943507041044 7.666761990149952 -1.6456363299250627 0 0 0
9657 1 2 0 50.45170782510565 6.143393823078922 -2.274566399385386 0 0 0
9656 1 2 0 51.835426287729625 8.228515868898809 -2.212225829025519 0 0 0
13198 1 2 0 50.412862619470104 7.662547487125533 -1.3320022374040764e-07 0 0 0
9658 1 2 0 54.52418696495086 8.537795389075866 -2.1732444656944416 0 0 0
6846 1 1 0 56.11895945488319 8.291577128741492 -1.6481730114962216 0 0 0
9676 1 2 0 56.85679777230162 6.829297491160219 -2.1551858103495776 0 0 0
9652 1 2 0 52.53072800217939 10.643141833661948 -2.2453302900294836 0 0 0
6834 1 1 0 53.063542349274194 9.175735712199133 -1.6456348269746048 0 0 0
9674 1 2 0 56.916529680461 9.700172481720593 -2.161415090610163 0 0 0
6845 1 1 0 56.79161238455231 11.303288148038082 -1.6466811045271033 0 0 0
13211 1 2 0 56.131017559304745 8.227203367897255 -1.2695288818253383e-07 0 0 0
13210 1 2 0 56.850914864016914 11.24247398868536 -3.7399886963623065e-07 0 0 0
9691 1 2 0 62.91404614199983 7.237033166412453 -2.168933212655349 0 0 0
9690 1 2 0 61.82176737908373 9.755466137857413 -2.1491644354935264 0 0 0
6855 1 1 0 61.73745650190657 11.354961858227377 -1.6480076369811159 0 0 0
6854 1 1 0 63.0847730574538 8.778978869977072 -1.6512636839199404 0 0 0
13219 1 2 0 63.13912586652683 8.87037918800529 -4.000179064973482e-08 0 0 0
6852 1 1 0 65.85045608169682 9.735956096163793 -1.4933513579557438 0 0 0
9686 1 2 0 64.54283367798615 9.196729599065286 -2.3316862214485385 0 0 0
9687 1 2 0 67.24029813969887 9.578067989269696 -2.3702685040036098 0 0 0
9685 1 2 0 65.66568898166146 11.34536600926488 -1.3218088794932763 0 0 0
13223 1 2 0 68.46082165747526 10.120767198888979 -9.110921716976026e-08 0 0 0
6862 1 1 0 69.61290078820457 6.4299048429645875 -1.4705154958328117 0 0 0
9696 1 2 0 68.69967551405607 7.767769529784176 -1.2815041156776656 0 0 0
9703 1 2 0 71.1308891936024 7.021961191846196 -2.0370114100042693 0 0 0
6871 1 1 0 72.82363193283821 7.314288850424841 -1.6241774063629701 0 0 0
6858 1 1 0 68.61966036363204 9.361760595491054 -1.483238234990814 0 0 0
9695 1 2 0 70.0508390057835 9.841413720226454 -2.14496563760492 0 0 0
6859 1 1 0 70.66076730022453 11.297870902650116 -1.6428832087494922 0 0 0
9698 1 2 0 72.19454034342938 11.276101410636004 -2.245744974383857 0 0 0
9715 1 2 0 74.13344828263438 8.392177277179245 -2.079203427616464 0 0 0
9711 1 2 0 74.89802449273809 10.93337868554764 -2.1715305988143663 0 0 0
6870 1 1 0 75.47454996556 9.447230387436301 -1.641272336870488 0 0 0
9716 1 2 0 77.19056830489657 9.474490399336798 -2.0891537005471608 0 0 0
6874 1 1 0 78.89051259635241 9.653141060954367 -1.6495059343252716 0 0 0
6875 1 1 0 80.47450104731843 6.719281384778517 -1.6439228732547382 0 0 0
9721 1 2 0 79.82149001057354 8.25284839708945 -2.119453924879247 0 0 0
9724 1 2 0 81.99165075889847 6.038159757977133 -2.124463969247173 0 1 0
9722 1 2 0 79.7284766509467 11.16234052941715 -2.073181955846215 0 0 0
9735 1 2 0 84.91164436773913 10.69773635441236 -2.149121714626248 0 0 0
13240 1 2 0 80.55147496843335 6.815406455450927 -1.5905661298347126e-07 0 0 0
9736 1 2 0 85.52697885257884 7.992778275059176 -1.980615145443115 0 0 0
6884 1 1 0 86.05583193426843 6.442815525421153 -1.6268154793889458 0 0 0
9749 1 2 0 90.473509628164 6.278669319781188 -2.1587824919228 0 0 0
6882 1 1 0 86.05368889709489 9.53961154731079 -1.6268161841627817 0 0 0
9737 1 2 0 87.61521700954896 9.391812602771028 -2.2843598885172365 0 0 0
6888 1 1 0 89.10201320610922 9.35985259688461 -1.486669693431136 0 0 0
9745 1 2 0 90.55898987564447 8.796569797563322 -2.1315301355632297 0 0 0
9744 1 2 0 89.34639160925803 10.94799089767528 -1.2729829162487685 0 0 0
13247 1 2 0 86.20866924361827 9.832787243277245 -1.0673721290023154e-07 0 0 0
13253 1 2 0 88.91629220205442 8.595098407403666 -2.2475587433489104e-07 0 0 0
13249 1 2 0 86.15323226504661 6.210951001394588 -6.308410852096635e-08 0 0 0
6891 1 1 0 91.51123648320969 7.470918016624219 -1.6373350454150175 0 0 0
6893 1 1 0 94.72768083906482 7.053791094630597 -1.548225071652481 0 0 0
9750 1 2 0 93.11263375947556 7.153752340128238 -2.1725819654448206 0 0 0
9753 1 2 0 96.11782832765384 6.26112406994057 -2.1799194904426495 0 0 0
9752 1 2 0 95.21306839978628 8.620781499454425 -1.6649071346305426 0 0 0
9754 1 2 0 95.75821297705139 10.993565405642078 -2.284347648031878 0 0 0
13260 1 2 0 94.28618892933143 11.102208235287522 -2.482913521552298e-06 0 0 0
13258 1 2 0 94.54484406055076 6.473144005876858 -7.526688691012147e-07 0 0 0
6895 1 1 0 94.46560049514748 11.732340581562436 -1.5320958451158868 0 0 0
9755 1 2 0 92.96100938108798 11.739734009440731 -2.2787081888432903 0 0 0
6389 1 1 0 100.79946354151139 6.421055998022204 -1.6410805128948125 0 0 0
8954 1 2 0 100.59754783799109 8.005608877173813 -2.169416168437112 0 0 0
6894 1 1 0 96.48262733854158 9.664402652874347 -1.5575466684487123 0 0 0
8955 1 2 0 97.90229492075488 9.058224714916244 -2.214908326420851 0 0 0
6388 1 1 0 99.49120923319515 9.147813339511378 -1.6437265777601202 0 0 0
8942 1 2 0 100.04752294710724 10.588648486424026 -2.207595699323547 0 0 0
13262 1 2 0 97.62446998466196 6.06034618485656 -5.876919672215028e-07 0 1 0
6507 1 1 0 8.200410611751849 12.795655656854414 -1.6461845952635044 0 0 0
9152 1 2 0 8.455851819317848 14.32069438775539 -2.230799182556538 0 0 0
6510 1 1 0 9.176675069816017 15.678077869550169 -1.644433526918782 0 0 0
9158 1 2 0 10.734194512341475 15.64103482430638 -2.187118940389595 0 0 0
6555 1 1 0 12.049304039274848 16.481046927718765 -1.6405335921599378 0 0 0
12872 1 2 0 8.22550153439192 12.764911907872337 -4.649829023867014e-07 0 0 0
9156 1 2 0 8.42710701898157 17.036533366977558 -2.25454457336388 0 0 0
12920 1 2 0 12.209795880159062 16.502664573009408 -3.2978613511898494e-07 0 0 0
9579 1 2 0 14.126804751753966 12.94538163313002 -2.1049413519529394 0 0 0
6792 1 1 0 14.547764238979186 14.588236655556182 -1.6501495744171244 0 0 0
9226 1 2 0 13.360451898869103 15.634760736915629 -2.220652459580758 0 0 0
9588 1 2 0 15.981140517025434 15.448963960930676 -2.1359759679481463 0 0 0
6793 1 1 0 17.057573065113303 16.6976125704028 -1.6444221410192785 0 0 0
9589 1 2 0 18.656466698606636 16.588450501716704 -2.1660276036631 0 0 0
13157 1 2 0 14.610046690826627 14.5262278476742 -2.820575589756522e-07 0 0 0
9583 1 2 0 20.8881494375399 12.817748944732589 -2.125012356515106 0 0 0
9586 1 2 0 20.96377581634429 15.417820818562477 -2.2420229487440926 0 0 0
6791 1 1 0 21.813273158513717 14.143310954150719 -1.642094812093672 0 0 0
9587 1 2 0 23.38632183637731 14.432624018487726 -2.182281055372099 0 0 0
6794 1 1 0 20.242600417228413 16.77290058366433 -1.646627126924975 0 0 0
13156 1 2 0 21.87271078171187 14.122079469157704 -1.2468861548187933e-06 0 0 0
6801 1 1 0 25.973295350283703 12.046513998378666 -1.6442554965698495 0 0 0
6802 1 1 0 24.922929338715623 14.864201149115763 -1.640892391261839 0 0 0
9601 1 2 0 25.911566177108202 13.622292450815637 -2.14442897152068 0 0 0
9603 1 2 0 25.665838849071864 16.276442633881622 -2.186644358960884 0 0 0
9611 1 2 0 28.334795523664464 17.11982704041826 -2.1392362527669815 0 0 0
6807 1 1 0 26.741841354554822 17.469732230571648 -1.6479833138982205 0 0 0
9607 1 2 0 30.91640345765011 12.686058501656895 -2.103758252703385 0 0 0
6806 1 1 0 31.64959127869062 14.143579165885921 -1.6416474318398468 0 0 0
9610 1 2 0 33.214017554564656 13.644595127341697 -2.120661010699085 0 0 0
6818 1 1 0 34.75436406082728 14.129681952767136 -1.6466279760831257 0 0 0
9630 1 2 0 34.55406574777471 15.64938207886079 -2.271248566464996 0 0 0
9609 1 2 0 30.8206441610698 15.606623213276455 -2.142637728858212 0 0 0
6808 1 1 0 29.966146763465517 17.055699160142492 -1.6483388223782218 0 0 0
13171 1 2 0 31.657040030330975 14.312809118159308 -2.2704201561874656e-11 0 0 0
13173 1 2 0 30.02341974978612 17.012374683731306 -4.1961750115075687e-07 0 0 0
6825 1 1 0 35.38983774034372 16.87637185887471 -1.6216604290335905 0 0 0
6817 1 1 0 37.768086112355796 13.009359032748637 -1.6330570789250058 0 0 0
9628 1 2 0 36.26593331178923 13.602069532341043 -2.1800277820603045 0 0 0
9629 1 2 0 39.332714393133635 13.461233095607913 -2.161188072225227 0 0 0
9641 1 2 0 36.96302244940971 16.51250319419723 -1.9471534347713553 0 0 0
9639 1 2 0 39.452394353141884 16.980858279456278 -2.3201739687635907 0 0 0
6826 1 1 0 38.13492700809553 17.61576147025599 -1.6120762656073997 0 0 0
13188 1 2 0 40.88808892755351 13.612459408549404 -2.0905089267181352e-08 0 0 0
13182 1 2 0 37.78036740387306 13.245393713834169 -1.2154411360544375e-07 0 0 0
9638 1 2 0 42.25273890629212 12.803883414488142 -2.1641517956448126 0 0 0
6823 1 1 0 40.934751436099134 13.739679964559844 -1.6444625892912008 0 0 0
6828 1 1 0 43.82007822654085 12.423614443637373 -1.6475257712457856 0 0 0
9637 1 2 0 41.40525457684519 15.253798976840702 -2.170827655970758 0 0 0
9647 1 2 0 45.03964180940594 13.46846877269594 -2.167504553755296 0 0 0
6824 1 1 0 40.93899434763502 16.75249266039478 -1.6476454997864993 0 0 0
9659 1 2 0 46.02213860591337 16.01118110465988 -2.213289262632979 0 0 0
13193 1 2 0 43.816507940144824 12.442275359072084 -3.252281349231841e-07 0 0 0
6910 1 1 0 45.70277304900809 17.54435496922469 -1.6416937464822785 0 0 0
6835 1 1 0 46.29824083322045 14.45274983823487 -1.6484009132809412 0 0 0
13189 1 2 0 40.97917923554719 16.739861478963284 -6.364376671678547e-08 0 0 0
6831 1 1 0 51.73329021537609 11.959409116113719 -1.6067803924820752 0 0 0
9651 1 2 0 50.24893499027624 12.481819042385586 -2.187695641980633 0 0 0
6832 1 1 0 49.40261575076334 13.842673785591089 -1.6502028253958034 0 0 0
9654 1 2 0 47.80977643919166 13.924395768466528 -2.1830127794641623 0 0 0
9655 1 2 0 50.27656746351633 15.138029999869048 -2.2166990295303575 0 0 0
6843 1 1 0 51.1732358939613 16.40969903000966 -1.645799837421055 0 0 0
13197 1 2 0 49.37116925121334 13.831298305982678 -7.669186061620135e-07 0 0 0
9669 1 2 0 55.34772265170606 11.924816855675305 -2.2311449295055015 0 0 0
9653 1 2 0 52.82683718849634 13.161646591097137 -1.9323764603367761 0 0 0
6841 1 1 0 54.4554713711699 13.187024458694589 -1.6184198128292748 0 0 0
9668 1 2 0 54.89306119902994 14.656159241418852 -2.229430330598574 0 0 0
6842 1 1 0 54.29250693372259 16.09724009524801 -1.6505428942478266 0 0 0
9670 1 2 0 52.750775917887196 16.410498326084905 -2.2054903841635216 0 0 0
13206 1 2 0 54.72723813008497 13.15808503130549 -2.8491419066542483e-07 0 0 0
9671 1 2 0 55.420786164663156 17.16429982657248 -2.2180468814849514 0 0 0
13207 1 2 0 54.26192650178075 16.128607062968193 -3.252136179691966e-07 0 0 0
9675 1 2 0 57.944229083790106 12.40087919083631 -2.168365536519316 0 0 0
9683 1 2 0 60.514541703285076 12.281542462605412 -2.2514861430230706 0 0 0
6850 1 1 0 59.294476029509994 13.247137327225118 -1.6473914130686953 0 0 0
9680 1 2 0 59.475847534867924 14.846436241557443 -2.168187938445577 0 0 0
6849 1 1 0 59.60082386011151 16.464147838457833 -1.6496348651144517 0 0 0
9681 1 2 0 58.22369745687605 17.2750119317023 -2.1888729543894168 0 0 0
9682 1 2 0 60.9965488368077 17.294534976212 -2.161289114070741 0 0 0
13215 1 2 0 59.30056766336327 13.289836289437634 -1.5937285349213912e-07 0 0 0
9688 1 2 0 63.11807328509003 12.008318968630618 -2.2857007929395365 0 0 0
6853 1 1 0 64.47963409240782 12.453614325315796 -1.496799362808174 0 0 0
9689 1 2 0 65.24723099598141 13.563117464418834 -2.4159999290587773 0 0 0
6861 1 1 0 66.20829070101212 14.649108810318255 -1.6408816403867867 0 0 0
9699 1 2 0 67.76384983078371 14.492767456331704 -2.2255671890381907 0 0 0
9701 1 2 0 65.31060134186167 15.964245935849737 -2.032457436315821 0 0 0
6920 1 1 0 65.28117669542999 17.54747089761196 -1.6047458868320619 0 0 0
6923 1 1 0 68.31012217869028 17.49972578362368 -1.472561242629497 0 0 0
13226 1 2 0 66.2817833236117 14.515954520826734 -2.5021072081998404e-07 0 0 0
13288 1 2 0 68.05760991262484 16.703338731314037 -7.491828530541091e-07 0 0 0
6867 1 1 0 73.62326421972995 11.877857131690192 -1.6510229796319258 0 0 0
13232 1 2 0 73.68671509767277 11.89884755977439 -3.279333951639529e-07 0 0 0
9697 1 2 0 69.53108466903208 12.330289018500466 -2.303833020660323 0 0 0
9710 1 2 0 73.67010936871432 13.423733736841616 -2.2606470090543334 0 0 0
6860 1 1 0 69.08118822243277 13.72816465779664 -1.5430661619429464 0 0 0
9700 1 2 0 70.53031285584879 14.525125718346631 -1.5746611412650036 0 0 0
9712 1 2 0 72.55298216375434 16.068540568457543 -2.134838208684746 0 0 0
6868 1 1 0 73.74870204595607 14.946803863990828 -1.6207819925031857 0 0 0
9714 1 2 0 69.54531995717822 16.722717851884468 -2.314536804421044 0 0 0
6869 1 1 0 70.92833960399975 16.12408167656558 -1.5584277397593542 0 0 0
13225 1 2 0 68.65986748080155 13.348965884426025 -9.77927857617408e-08 0 0 0
13233 1 2 0 73.47266562720127 14.864329754954202 -2.164457400453109e-07 0 0 0
9713 1 2 0 75.34872012440339 15.310783947166971 -1.951672447966032 0 0 0
6881 1 1 0 76.23043657693954 16.685112256399098 -1.5934756218737682 0 0 0
9732 1 2 0 77.90059202771509 16.334382582551434 -2.081675954864788 0 0 0
6880 1 1 0 79.57280740530435 15.868480953680292 -1.648385451706167 0 0 0
13245 1 2 0 79.53656104876657 15.853711432094855 -3.897126605070517e-07 0 0 0
6879 1 1 0 80.70172869197081 12.576148777681427 -1.6482425969456251 0 0 0
9731 1 2 0 82.37677522641204 12.316134003424802 -2.116256514803378 0 0 0
6883 1 1 0 84.03512543092896 12.105590845448024 -1.6503359587230029 0 0 0
9730 1 2 0 80.10165874288856 14.211032759276575 -2.059628919250544 0 0 0
9738 1 2 0 84.99519840009884 13.409787710298277 -2.179573323379805 0 0 0
9733 1 2 0 80.75657698648298 17.10940702597689 -2.069959962635046 0 0 0
13244 1 2 0 80.70720449934777 12.590929935058314 -7.606751486622394e-08 0 0 0
13248 1 2 0 83.99176224715572 12.066775078315992 -7.066615614330802e-07 0 0 0
6889 1 1 0 89.08362520518216 12.532007889815212 -1.4912280031668368 0 0 0
9747 1 2 0 90.40782798247662 12.867497419541408 -2.431685972448519 0 0 0
6890 1 1 0 86.48428179064167 14.001316251537448 -1.6399156807526747 0 0 0
9746 1 2 0 87.62316409554916 12.893647804328 -2.1674400100267635 0 0 0
9748 1 2 0 87.05995587715437 15.499947639482544 -2.1723459690817477 0 0 0
9801 1 2 0 89.78849352339742 15.731408311297052 -2.20839105174049 0 0 0
13254 1 2 0 89.12623352315339 13.304446530678502 -5.464869589887093e-07 0 0 0
6925 1 1 0 88.3740039309111 16.43542078121094 -1.6420388512806212 0 0 0
13255 1 2 0 86.33234350207022 14.072766367828805 -3.349521643257841e-08 0 0 0
13290 1 2 0 88.23232418832079 16.478975742992723 -3.014883025255675e-07 0 0 0
6896 1 1 0 91.83762503627297 12.751199470155829 -1.5714363686384851 0 0 0
9757 1 2 0 92.24617487952233 14.35371717372449 -1.5332571532269033 0 0 0
6901 1 1 0 95.83445498783887 14.52886891297441 -1.5125394639291077 0 0 0
9756 1 2 0 94.72023531354249 13.34641053006333 -1.4525034102497723 0 0 0
6970 1 1 0 91.31755480840283 15.735092826948222 -1.5385389339299427 0 0 0
6973 1 1 0 93.94271823651749 16.822324432203974 -1.6610074640341308 0 0 0
9764 1 2 0 95.08257727024935 15.776623209586258 -2.2941204265690294 0 0 0
9868 1 2 0 92.40303709426976 16.7323871633876 -2.2945213056211826 0 0 0
13338 1 2 0 93.93175006774733 16.712550423965016 -6.26312992550977e-07 0 0 0
6381 1 1 0 100.7664266244495 11.961324878247174 -1.6486361593088872 0 0 0
8941 1 2 0 99.88470645378592 13.232127826080234 -2.2651078339915123 0 0 0
6384 1 1 0 98.70979624157222 14.225387257999033 -1.6372301713008521 0 0 0
8948 1 2 0 97.1911751195403 13.833552226489957 -2.1827679822697306 0 0 0
8947 1 2 0 98.78979020496216 15.788686492669578 -2.172096555544001 0 0 0
6385 1 1 0 99.7217934942029 17.029199251952473 -1.6342609279413147 0 0 0
8945 1 2 0 101.21037842916499 16.584027697626055 -2.163825661380897 0 0 0
12750 1 2 0 99.71405441531849 17.162475983796476 -2.153441705257246e-06 0 0 0
9194 1 2 0 9.662134298045176 20.00859664586926 -2.3541592855070563 0 0 0
9224 1 2 0 11.806312406223649 18.05758906963098 -2.185329305629269 0 0 0
6554 1 1 0 10.96450843689982 19.341633389641697 -1.5349202455885607 0 0 0
6533 1 1 0 8.382821061436223 20.749719115914054 -1.5736968657156414 0 0 0
9225 1 2 0 11.971494203318281 20.631409645561625 -1.523244432352285 0 0 0
6575 1 1 0 11.978756837222523 22.28111293631613 -1.550587774872414 0 0 0
9254 1 2 0 10.673349650403045 23.167267065698628 -2.154373328067238 0 0 0
9590 1 2 0 16.690803046280635 18.26099217874756 -2.15837844067199 0 0 0
6932 1 1 0 16.95883720122957 19.836278343106876 -1.6493258630676415 0 0 0
9811 1 2 0 15.609668449780656 20.63202547397534 -2.2240091925981984 0 0 0
6933 1 1 0 14.857161627410518 21.985907931753157 -1.6364002357057055 0 0 0
9812 1 2 0 18.34114719345437 20.647993474475587 -2.1937206483474623 0 0 0
9256 1 2 0 13.42567138580918 22.468543192668715 -2.3428214417044386 0 0 0
9813 1 2 0 15.822649265582937 23.242308063593487 -2.052466870452316 0 0 0
9591 1 2 0 21.229535983491928 18.03030429271238 -2.1852993221104344 0 0 0
6937 1 1 0 22.032596523896206 19.40839935627064 -1.6403923497288782 0 0 0
9820 1 2 0 23.59175157549676 19.78471942650297 -2.1760123036405528 0 0 0
6938 1 1 0 19.715229622865177 21.44578040977736 -1.643148219437484 0 0 0
9819 1 2 0 21.074294163125565 20.651077300063942 -2.159296771846202 0 0 0
13303 1 2 0 19.62200843519865 21.48653584094374 -6.478564674505419e-07 0 0 0
9821 1 2 0 20.002331040420515 23.002219189700636 -2.2006378032317717 0 0 0
9612 1 2 0 26.182806772612217 19.0010595815493 -2.1358634520203688 0 0 0
6939 1 1 0 25.13736487672097 20.25302578535153 -1.6483059442689274 0 0 0
9822 1 2 0 25.629791211633265 21.834499239527243 -2.1428147450661736 0 0 0
13378 1 2 0 25.99490317557852 23.38973175173517 -1.0220544909420738e-07 0 0 0
13304 1 2 0 25.126013239153124 20.306752869084967 -2.0213306368466196e-08 0 0 0
9642 1 2 0 34.79395679543709 18.218208457177532 -2.327861536393686 0 0 0
9613 1 2 0 30.59734486040972 18.578844403384874 -2.1346231108229268 0 0 0
9823 1 2 0 32.86621014213113 19.960268858968046 -2.309038249796494 0 0 0
6941 1 1 0 31.350374766817627 20.030295381864832 -1.6461354466238596 0 0 0
6940 1 1 0 34.31384356100094 19.636045823185995 -1.6411925362452116 0 0 0
9825 1 2 0 30.999959166955254 21.632874701662708 -2.117835092689849 0 0 0
7017 1 1 0 31.445928561981567 23.20459797107088 -1.6462653669361538 0 0 0
9824 1 2 0 35.46905796657783 20.7284625844813 -2.0975751534918903 0 0 0
9643 1 2 0 37.670602388845865 19.039679438978183 -2.282836228208327 0 0 0
6943 1 1 0 37.03511428241738 20.42007850333324 -1.644581574364472 0 0 0
9827 1 2 0 37.93680963860465 21.591052293808076 -2.3131561608878055 0 0 0
9833 1 2 0 40.56262876692141 21.980135003805557 -2.255286609879169 0 0 0
6948 1 1 0 39.13173939481065 22.493268186537158 -1.6395885776787982 0 0 0
13191 1 2 0 38.3782031848315 17.81859298630847 -4.279015701704474e-07 0 0 0
13313 1 2 0 39.18440215900867 22.367985502753996 -1.4347603166588117e-07 0 0 0
9640 1 2 0 41.75873157961895 18.062002324546853 -2.2142749612518733 0 0 0
6911 1 1 0 42.989297145658355 19.007603953756817 -1.64516855088814 0 0 0
9779 1 2 0 42.842472418919435 20.57503408979604 -2.2090252500245073 0 0 0
9777 1 2 0 44.29259137537441 18.18199497041554 -2.2281921019907007 0 0 0
6947 1 1 0 42.10456111414923 21.969861001446123 -1.6466328676067234 0 0 0
9834 1 2 0 42.70548019605974 23.419840933748056 -2.174473021189195 0 0 0
6983 1 1 0 46.34316865672434 23.0577146241666 -1.636702875586234 0 0 0
9785 1 2 0 46.39661467055749 21.463152289699106 -2.202063571805908 0 0 0
13312 1 2 0 42.145176374510655 21.93214277867188 -2.8790031456203114e-07 0 0 0
13348 1 2 0 46.15500030918372 22.979944745337203 -2.771485076070713e-07 0 0 0
9672 1 2 0 50.34624371606364 17.74368731098734 -2.19112083095315 0 0 0
9778 1 2 0 46.798323653724715 18.66089049508867 -2.176983489844594 0 0 0
6915 1 1 0 47.29508804680591 20.15553875610608 -1.646389065889512 0 0 0
9783 1 2 0 48.86571063897665 20.1471866310321 -2.1909091997433183 0 0 0
6914 1 1 0 50.18464810277261 19.29970521714155 -1.6454534929784228 0 0 0
9784 1 2 0 51.48485688074946 20.09142245445845 -2.2546753776878266 0 0 0
13279 1 2 0 50.16899326539244 19.290648138404904 -6.034452204392124e-07 0 0 0
6851 1 1 0 56.77915835799161 17.930732112093715 -1.6458579839937406 0 0 0
9684 1 2 0 56.54178912613774 19.49317684425631 -2.1885956834067035 0 0 0
6952 1 1 0 52.53261346103724 21.192999821842783 -1.645269430696868 0 0 0
9839 1 2 0 53.98953850365981 20.63088028914689 -2.200651178895209 0 0 0
6951 1 1 0 55.54852266296438 20.712423678171696 -1.6448640325216637 0 0 0
9840 1 2 0 56.08073794678575 22.15023553468985 -2.2383862940150454 0 0 0
13216 1 2 0 56.82689067177857 17.879059974106895 -7.007722403087642e-07 0 0 0
13316 1 2 0 55.56959885423926 20.698776368026362 -4.5933340621542705e-07 0 0 0
9841 1 2 0 52.018489005416434 22.661380418925823 -2.211503690242523 0 0 0
6921 1 1 0 62.213331245789405 18.375879192521275 -1.647510642011094 0 0 0
9795 1 2 0 61.81236076712656 19.934742209494303 -2.133580183281928 0 0 0
6958 1 1 0 62.16305687427551 21.504525549164285 -1.6447639122193276 0 0 0
9849 1 2 0 60.982898152819864 22.596373577109308 -2.19465999915829 0 0 0
9851 1 2 0 58.27930279373885 23.4441763532787 -2.183857749565981 0 0 0
9794 1 2 0 66.83888530182372 17.96887916480176 -2.1344667318825 0 0 0
9793 1 2 0 63.79222456652491 18.075603075258694 -2.2026184112152203 0 0 0
9850 1 2 0 63.71719159653702 21.82887317749906 -2.1835758055625436 0 0 0
9903 1 2 0 66.51873468300168 21.439816296152944 -2.1598519561215666 0 0 0
6994 1 1 0 68.12755779145316 21.627578702548306 -1.6078320679997489 0 0 0
6995 1 1 0 65.20846918035546 22.388364908289645 -1.6521048156964302 0 0 0
9904 1 2 0 68.23969566368996 23.266638181436928 -1.8735921502053134 0 0 0
9797 1 2 0 69.01042816724726 18.933245645207172 -1.2046282306280685 0 0 0
6964 1 1 0 70.42904239259528 19.73134587058497 -1.4703613077080318 0 0 0
9857 1 2 0 71.65565021617427 18.62184595133189 -2.007779838586469 0 0 0
6963 1 1 0 73.41818877986117 18.51198002751218 -1.61892741390114 0 0 0
9858 1 2 0 73.60055072792973 20.036009048130072 -2.187772695346262 0 0 0
9859 1 2 0 69.57614237698365 21.000740651520616 -2.258906786320039 0 0 0
9864 1 2 0 73.37157480743583 22.685303248802555 -2.2769630905571785 0 0 0
13329 1 2 0 71.02019519757579 20.304261306493505 -1.9638004960785745e-07 0 0 0
6967 1 1 0 74.23409474948942 21.427302248026205 -1.6408798473084294 0 0 0
9734 1 2 0 74.94934954015403 17.801920705422884 -2.049020600619735 0 0 0
9863 1 2 0 75.72211315905109 21.43658071172203 -2.3238684863554693 0 0 0
9865 1 2 0 78.24487152026691 20.82719558683883 -2.147021869986 0 0 0
6969 1 1 0 77.11648110880677 21.93149085680262 -1.6409853048676344 0 0 0
13334 1 2 0 77.12629227019991 21.845888221229817 -3.1755340741864175e-07 0 0 0
6968 1 1 0 79.81760911608019 21.057597665420143 -1.6447877183585415 0 0 0
13333 1 2 0 80.0245950936204 21.047101093202023 -4.495802477749603e-07 0 0 0
9799 1 2 0 80.77736096889682 19.838022960541043 -2.2328953175673116 0 0 0
6924 1 1 0 81.68745308690326 18.549465035398644 -1.6481111414157956 0 0 0
9798 1 2 0 83.31971122862605 19.018546006753347 -2.128132025549653 0 0 0
6926 1 1 0 84.7549814274372 19.88058634383539 -1.639664089118322 0 0 0
9803 1 2 0 84.95883121599631 21.454965094777645 -2.1982030887768516 0 0 0
13289 1 2 0 81.77181698168575 18.468890290576404 -2.59128440433145e-07 0 0 0
9866 1 2 0 80.02330799902917 22.591535316122016 -2.2821475374517366 0 0 0
13291 1 2 0 84.62715377361225 19.84099405507707 -1.7885691988536875e-07 0 0 0
7000 1 1 0 85.50331338792611 22.93911217035357 -1.647899996251569 0 0 0
9802 1 2 0 86.30394344404641 19.355161762764304 -2.0866311570929565 0 0 0
6927 1 1 0 87.9351111538096 19.523962427022056 -1.641758029010354 0 0 0
9800 1 2 0 88.4640908308693 18.023371847931127 -2.177969254050131 0 0 0
9804 1 2 0 88.96224814348885 20.83625484029055 -2.158335791165931 0 0 0
7041 1 1 0 90.17429917525978 21.96668948700179 -1.6455706037659894 0 0 0
13292 1 2 0 88.00042504199227 19.656178110461465 -6.661375897594817e-07 0 0 0
13406 1 2 0 90.03684630892688 21.981324101415776 -9.771005004347804e-07 0 0 0
13365 1 2 0 85.60793747653776 22.778056596376693 -2.0335691491461389e-07 0 0 0
9872 1 2 0 94.37421481799053 18.29211331801987 -2.2183547015080536 0 0 0
6977 1 1 0 95.14114941390748 19.604394400862848 -1.6409672410101837 0 0 0
9919 1 2 0 91.71376297756979 21.522545211130964 -2.1704454578077033 0 0 0
9879 1 2 0 94.30049522059112 20.87794461875284 -2.253034648489725 0 0 0
7004 1 1 0 93.23225629085765 21.97825788242055 -1.646905661577768 0 0 0
13342 1 2 0 95.19671758265872 19.69166828817584 -2.1107147347686183e-07 0 0 0
13369 1 2 0 93.18694164346232 21.99673455459264 -1.1738508495931615e-06 0 0 0
9878 1 2 0 96.66718071114 19.489465423055982 -2.247483584389797 0 0 0
6978 1 1 0 98.19361267300813 19.626355729764963 -1.6446934234209007 0 0 0
8949 1 2 0 99.17407965655305 18.45421082115601 -2.2782335647085934 0 0 0
9880 1 2 0 98.72198167535181 21.10654406983732 -2.169236407033923 0 0 0
7005 1 1 0 98.06489862999409 22.53201826096413 -1.6430527581562135 0 0 0
9920 1 2 0 96.52115197046736 22.78083168242475 -2.1831758629258635 0 0 0
13370 1 2 0 98.03971128812563 22.53916127786281 -2.6809157255007458e-06 0 0 0
9252 1 2 0 9.40815531883237 25.833602567911196 -2.264904212700038 0 0 0
6573 1 1 0 8.388235721458505 27.01412532425256 -1.6422291043411597 0 0 0
6574 1 1 0 10.524893963906809 24.774485922791506 -1.6126378082278376 0 0 0
9255 1 2 0 12.013200809108218 25.32750110140279 -2.0440648587544943 0 0 0
9253 1 2 0 8.578115765567402 28.574617838560744 -2.2176555098822157 0 0 0
9351 1 2 0 12.728539448379522 27.8355483697345 -2.2459320823269118 0 0 0
6637 1 1 0 13.195351484500428 26.376442009021762 -1.6274074175272297 0 0 0
12939 1 2 0 10.175142088094324 24.763110374102215 -5.7218741742744654e-08 0 0 0
7007 1 1 0 15.78712560500229 24.825768098866575 -1.633552783787093 0 0 0