ITEM: TIMESTEP
1652
ITEM: NUMBER OF ATOMS
15396
ITEM: BOX BOUNDS pp pp pp
0.0000000000000000e+00 2.0409766126283125e+02
0.0000000000000000e+00 1.7561482173225104e+02
-1.0000000000000000e+02 1.0000000000000000e+02
ITEM: ATOMS id type element x y z v_uncoordination
1 1 Si 163.481 48.4038 1.61834 0
2 1 Si 160.431 46.5545 1.62502 0
3 1 Si 166.835 47.1288 1.62345 0
4 1 Si 164.029 42.0358 1.62743 0
5 1 Si 161.007 43.2834 1.61549 0
6 1 Si 167.132 43.6329 1.65173 0
7 1 Si 163.336 51.7665 1.63929 0
8 1 Si 154.186 49.0126 1.62987 0
9 1 Si 156.967 47.0894 1.62331 0
10 1 Si 154.306 52.2285 1.62669 0
11 1 Si 157.251 53.5776 1.60778 0
12 1 Si 160.53 53.5739 1.6352 0
13 1 Si 169.762 49.2314 1.64155 0
14 1 Si 169.363 52.626 1.62722 0
15 1 Si 166.233 53.4421 1.61951 0
16 1 Si 106.478 5.37136 1.54807 0
17 1 Si 108.858 7.06223 1.61703 0
18 1 Si 106.24 8.6016 1.57149 0
19 1 Si 108.871 10.2129 1.57763 0
20 1 Si 114.267 2.73322 1.6338 0
21 1 Si 111.469 1.34425 1.64079 0
22 1 Si 114.829 175.235 1.62159 0
23 1 Si 111.971 173.907 1.59625 0
24 1 Si 111.356 5.40576 1.5806 0
25 1 Si 108.716 2.61523 1.62207 0
26 1 Si 103.541 4.68789 1.65496 0
27 1 Si 103.464 1.56596 1.63025 0
28 1 Si 106.285 0.016393 1.62105 0
29 1 Si 115.703 5.64149 1.62885 0
30 1 Si 113.618 8.18982 1.60337 0
31 1 Si 120.24 2.39962 1.63688 0
32 1 Si 118.963 5.49602 1.62593 0
33 1 Si 120.002 174.672 1.6379 0
34 1 Si 117.206 173.216 1.62939 0
35 1 Si 123.322 2.78243 1.63061 0
36 1 Si 125.505 5.05505 1.63142 0
37 1 Si 124.417 7.99301 1.61328 0
38 1 Si 121.084 8.17058 1.61182 0
39 1 Si 125.18 0.341793 1.64616 0
40 1 Si 128.503 3.96276 1.64172 0
41 1 Si 128.184 0.89244 1.62801 0
42 1 Si 122.103 172.118 1.63062 0
43 1 Si 125.101 172.889 1.62793 0
44 1 Si 133.514 2.22355 1.63009 0
45 1 Si 136.556 3.18344 1.63955 0
46 1 Si 131.52 4.84887 1.63925 0
47 1 Si 137.371 6.2831 1.63534 0
48 1 Si 132.232 8.05578 1.62959 0
49 1 Si 135.388 8.73845 1.62357 0
50 1 Si 132.9 174.576 1.63151 0
51 1 Si 138.844 0.941542 1.63671 0
52 1 Si 137.998 173.414 1.61855 0
53 1 Si 134.997 172.101 1.61339 0
54 1 Si 129.835 173.843 1.64322 0
55 1 Si 141.848 2.22328 1.63411 0
56 1 Si 142.738 5.4072 1.63199 0
57 1 Si 140.342 7.47701 1.62768 0
58 1 Si 144.125 175.608 1.63668 0
59 1 Si 148.081 4.71634 1.64775 0
60 1 Si 145.694 6.85849 1.63956 0
61 1 Si 147.02 1.58502 1.63496 0
62 1 Si 140.179 171.068 1.61462 0
63 1 Si 143.304 172.348 1.63878 0
64 1 Si 151.181 5.8802 1.64277 0
65 1 Si 152.194 9.03664 1.64483 0
66 1 Si 146.411 10.0986 1.63771 0
67 1 Si 149.632 11.1738 1.64792 0
68 1 Si 153.45 3.60003 1.64145 0
69 1 Si 152.421 0.603206 1.62526 0
70 1 Si 149.409 175.187 1.63455 0
71 1 Si 156.566 4.27673 1.63294 0
72 1 Si 157.65 7.31193 1.61594 0
73 1 Si 155.492 9.90899 1.64071 0
74 1 Si 158.714 1.8721 1.63654 0
75 1 Si 157.634 174.377 1.64727 0
76 1 Si 154.393 173.738 1.62246 0
77 1 Si 161.727 3.06612 1.62207 0
78 1 Si 160.801 6.26989 1.62694 0
79 1 Si 164.476 1.07412 1.64826 0
80 1 Si 160.026 172.133 1.62945 0
81 1 Si 163.23 173.455 1.62925 0
82 1 Si 168.823 5.42198 1.6268 0
83 1 Si 167.974 2.13653 1.62977 0
84 1 Si 166.232 7.51108 1.61416 0
85 1 Si 163.058 8.49811 1.63593 0
86 1 Si 175.075 4.90524 1.63459 0
87 1 Si 172.103 6.61762 1.62866 0
88 1 Si 178.549 6.21241 1.62267 0
89 1 Si 180.437 9.29034 1.62936 0
90 1 Si 172.63 9.86812 1.6445 0
91 1 Si 175.288 11.7084 1.62324 0
92 1 Si 178.524 11.7957 1.63458 0
93 1 Si 174.315 1.54623 1.6353 0
94 1 Si 171.021 0.301162 1.6233 0
95 1 Si 181.092 4.01992 1.64661 0
96 1 Si 180.247 0.647379 1.61613 0
97 1 Si 177.087 175.087 1.62966 0
98 1 Si 184.204 5.54633 1.61753 0
99 1 Si 185.679 8.5594 1.62114 0
100 1 Si 183.666 11.0456 1.6339 0
101 1 Si 187.141 4.17471 1.62043 0
102 1 Si 187.482 1.0695 1.63946 0
103 1 Si 182.285 173.554 1.62846 0
104 1 Si 185.354 174.309 1.62565 0
105 1 Si 189.903 5.88025 1.6155 0
106 1 Si 188.981 8.96737 1.61301 0
107 1 Si 193.042 5.14094 1.61761 0
108 1 Si 194.892 2.53186 1.62477 0
109 1 Si 190.451 175.604 1.62458 0
110 1 Si 193.619 175.345 1.64517 0
111 1 Si 195.374 7.34237 1.62716 0
112 1 Si 194.522 10.4523 1.60979 0
113 1 Si 191.36 11.27 1.62343 0
114 1 Si 198.173 5.78316 1.6131 0
115 1 Si 198.055 2.59967 1.60908 0
116 1 Si 201.177 6.72443 1.62155 0
117 1 Si 201.38 10.1035 1.62609 0
118 1 Si 196.217 13.246 1.62259 0
119 1 Si 199.46 12.9054 1.62868 0
120 1 Si 202.469 3.56704 1.62958 0
121 1 Si 200.667 0.710683 1.63682 0
122 1 Si 3.33644 6.10638 1.62113 0
123 1 Si 1.56496 3.19484 1.62674 0
124 1 Si 0.225901 11.4112 1.62593 0
125 1 Si 2.95504 9.55647 1.65381 0
126 1 Si 6.28077 4.6647 1.63669 0
127 1 Si 5.88387 1.34376 1.62467 0
128 1 Si 2.88268 0.0468858 1.61311 0
129 1 Si 103.536 10.0041 1.62769 0
130 1 Si 101.914 7.36188 1.63214 0
131 1 Si 126.666 10.4414 1.61498 0
132 1 Si 120.751 11.4448 1.62607 0
133 1 Si 124.026 12.5417 1.61621 0
134 1 Si 130.242 10.7008 1.62525 0
135 1 Si 140.704 10.6845 1.61836 0
136 1 Si 137.475 11.2479 1.63093 0
137 1 Si 151.035 47.8666 1.61865 0
138 1 Si 154.808 44.7032 1.61872 0
139 1 Si 151.62 44.8164 1.62104 0
140 1 Si 151.739 54.4122 1.61921 0
141 1 Si 147.836 48.4345 1.61723 0
142 1 Si 146.869 51.4196 1.59129 0
143 1 Si 148.473 54.1304 1.6275 0
144 1 Si 155.971 56.5096 1.60727 0
145 1 Si 152.966 57.4731 1.61181 0
146 1 Si 143.733 12.1178 1.63679 0
147 1 Si 167.147 10.499 1.63193 0
148 1 Si 162.024 11.6493 1.6181 0
149 1 Si 164.96 12.7189 1.61706 0
150 1 Si 170.012 11.6798 1.62234 0
151 1 Si 106.752 12.6688 1.64756 0
152 1 Si 103.479 13.1161 1.63228 0
153 1 Si 114.316 11.8461 1.63917 0
154 1 Si 108.606 15.1734 1.6146 0
155 1 Si 111.886 14.5059 1.60477 0
156 1 Si 117.639 13.0012 1.63394 0
157 1 Si 132.576 13.3213 1.62598 0
158 1 Si 136.02 14.0694 1.62849 0
159 1 Si 156.378 13.2298 1.63603 0
160 1 Si 150.407 14.4132 1.64703 0
161 1 Si 153.706 15.4642 1.62971 0
162 1 Si 159.781 14.0741 1.63675 0
163 1 Si 174.905 14.8457 1.62532 0
164 1 Si 169.65 14.8117 1.617 0
165 1 Si 172.251 16.5205 1.65357 0
166 1 Si 180.205 14.6012 1.61861 0
167 1 Si 177.637 16.3632 1.63078 0
168 1 Si 185.492 14.2598 1.61999 0
169 1 Si 183.011 16.2817 1.64483 0
170 1 Si 191.256 14.5618 1.62125 0
171 1 Si 188.473 16.3127 1.63946 0
172 1 Si 194.252 15.9721 1.61681 0
173 1 Si 204.019 14.7075 1.63265 0
174 1 Si 200.995 15.8238 1.62777 0
175 1 Si 124.887 15.6585 1.63718 0
176 1 Si 117.69 16.2454 1.60542 0
177 1 Si 119.888 18.5104 1.62551 0
178 1 Si 123.04 18.3325 1.62152 0
179 1 Si 131.076 16.1131 1.64176 0
180 1 Si 127.908 16.7211 1.60705 0
181 1 Si 144.337 15.4116 1.63241 0
182 1 Si 138.269 16.715 1.62407 0
183 1 Si 141.649 17.5456 1.6412 0
184 1 Si 147.648 16.4026 1.64174 0
185 1 Si 166.557 15.4302 1.62732 0
186 1 Si 161.653 17.0562 1.62713 0
187 1 Si 164.985 18.1405 1.6238 0
188 1 Si 2.19434 17.0595 1.63485 0
189 1 Si 5.23709 11.9618 1.62425 0
190 1 Si 4.8551 15.2373 1.63118 0
191 1 Si 107.057 18.1138 1.60075 0
192 1 Si 104.064 19.5421 1.63524 0
193 1 Si 100.697 15.0232 1.64366 0
194 1 Si 101.073 18.338 1.61414 0
195 1 Si 112.248 17.8248 1.61781 0
196 1 Si 109.707 20.0102 1.61075 0
197 1 Si 115.366 18.4241 1.60607 0
198 1 Si 133.024 18.6567 1.62075 0
199 1 Si 127.644 19.8741 1.61764 0
200 1 Si 130.644 20.776 1.62875 0
201 1 Si 136.206 19.2381 1.6222 0
202 1 Si 154.121 18.8434 1.63477 0
203 1 Si 160.181 19.9121 1.63322 0
204 1 Si 156.97 20.5705 1.61731 0
205 1 Si 172.472 19.6376 1.63336 0
206 1 Si 167.077 20.9017 1.61972 0
207 1 Si 170.272 21.9028 1.64887 0
208 1 Si 178.03 19.4312 1.63826 0
209 1 Si 175.33 20.9098 1.62473 0
210 1 Si 183.64 19.5277 1.63038 0
211 1 Si 180.794 20.9263 1.63403 0
212 1 Si 189.107 19.8118 1.63045 0
213 1 Si 186.321 21.5643 1.63677 0
214 1 Si 194.609 19.3849 1.63174 0
215 1 Si 192.059 21.6766 1.62832 0
216 1 Si 200.379 19.0902 1.62746 0
217 1 Si 197.584 20.8102 1.626 0
218 1 Si 202.766 21.3415 1.61049 0
219 1 Si 1.83847 20.4658 1.62953 0
220 1 Si 117.579 20.6352 1.62604 0
221 1 Si 124.727 21.0766 1.62834 0
222 1 Si 142.493 20.832 1.62546 0
223 1 Si 137.127 22.3813 1.63036 0
224 1 Si 140.275 23.3867 1.62461 0
225 1 Si 148.338 19.6495 1.63762 0
226 1 Si 145.698 21.6597 1.63581 0
227 1 Si 151.47 20.9071 1.6276 0
228 1 Si 162.133 22.5481 1.6075 0
229 1 Si 157.129 23.8261 1.61564 0
230 1 Si 160.086 24.9873 1.62955 0
231 1 Si 165.246 23.5213 1.63209 0
232 1 Si 109.279 23.3637 1.6219 0
233 1 Si 106.221 24.644 1.6183 0
234 1 Si 103.664 22.7727 1.62066 0
235 1 Si 117.536 23.7495 1.62781 0
236 1 Si 114.741 25.4649 1.61512 0
237 1 Si 111.508 25.8331 1.63886 0
238 1 Si 123.738 24.17 1.64299 0
239 1 Si 120.567 25.0077 1.63297 0
240 1 Si 131.417 23.7644 1.62638 0
241 1 Si 126.025 26.5342 1.64504 0
242 1 Si 129.237 26.0763 1.62155 0
243 1 Si 134.579 24.3502 1.62804 0
244 1 Si 151.979 24.2438 1.6233 0
245 1 Si 146.4 24.7958 1.62436 0
246 1 Si 149.349 26.0659 1.63331 0
247 1 Si 154.805 26.0256 1.6417 0
248 1 Si 175.242 24.0043 1.62199 0
249 1 Si 172.148 24.6211 1.62792 0
250 1 Si 180.603 24.0267 1.63149 0
251 1 Si 177.884 25.634 1.63965 0
252 1 Si 186.166 24.9586 1.63441 0
253 1 Si 183.122 25.8622 1.61928 0
254 1 Si 192.702 25.3377 1.6199 0
255 1 Si 187.753 27.9271 1.63297 0
256 1 Si 190.953 28.4443 1.63435 0
257 1 Si 198.165 24.08 1.61915 0
258 1 Si 195.853 26.477 1.6305 0
259 1 Si 201.443 24.3591 1.62547 0
260 1 Si 116.236 28.224 1.61851 0
261 1 Si 119.344 27.8792 1.61685 0
262 1 Si 141.166 26.6688 1.63613 0
263 1 Si 134.35 27.4755 1.6343 0
264 1 Si 139.563 29.5722 1.62109 0
265 1 Si 136.404 29.8157 1.61857 0
266 1 Si 144.32 27.2267 1.6315 0
267 1 Si 161.115 27.9803 1.63382 0
268 1 Si 155.53 29.3027 1.63877 0
269 1 Si 157.572 31.9068 1.62358 0
270 1 Si 160.52 31.1064 1.64078 0
271 1 Si 166.339 26.6227 1.63402 0
272 1 Si 164.113 28.7888 1.62707 0
273 1 Si 171.941 27.8162 1.61938 0
274 1 Si 168.898 28.5801 1.62543 0
275 1 Si 203.291 27.077 1.61944 0
276 1 Si 2.46062 26.4613 1.61039 0
277 1 Si 3.87886 23.2606 1.63171 0
278 1 Si 105.528 27.7846 1.63659 0
279 1 Si 102.753 29.3173 1.6177 0
280 1 Si 100.721 24.0762 1.60197 0
281 1 Si 100.271 27.2904 1.62491 0
282 1 Si 110.638 29.0663 1.61928 0
283 1 Si 107.642 30.094 1.62562 0
284 1 Si 115.39 31.2815 1.64562 0
285 1 Si 112.274 31.8955 1.62581 0
286 1 Si 119.965 30.9444 1.62681 0
287 1 Si 125.239 29.6687 1.6087 0
288 1 Si 122.902 31.8396 1.632 0
289 1 Si 131.343 28.4277 1.61956 0
290 1 Si 148.996 29.2345 1.62015 0
291 1 Si 145.909 29.9795 1.63173 0
292 1 Si 153.747 31.8942 1.62557 0
293 1 Si 150.672 31.9002 1.63035 0
294 1 Si 178.415 28.7078 1.61101 0
295 1 Si 173.684 30.5736 1.62648 0
296 1 Si 176.737 31.3825 1.62524 0
297 1 Si 181.56 28.5847 1.61789 0
298 1 Si 182.99 31.2948 1.61408 0
299 1 Si 186.173 30.851 1.61246 0
300 1 Si 196.408 29.8107 1.62708 0
301 1 Si 191.498 32.029 1.63056 0
302 1 Si 194.661 32.6398 1.62186 0
303 1 Si 202.264 30.2616 1.62042 0
304 1 Si 199.257 31.3 1.63241 0
305 1 Si 203.818 33.2277 1.62553 0
306 1 Si 2.92954 32.8377 1.61957 0
307 1 Si 3.67741 29.5715 1.62772 0
308 1 Si 106.04 32.886 1.63575 0
309 1 Si 102.841 32.5321 1.62718 0
310 1 Si 117.852 33.3361 1.60842 0
311 1 Si 127.412 31.9431 1.61464 0
312 1 Si 130.446 31.4001 1.64657 0
313 1 Si 139.888 32.836 1.62149 0
314 1 Si 145.214 33.0684 1.61716 0
315 1 Si 142.463 34.5745 1.62011 0
316 1 Si 154.646 34.9484 1.62891 0
317 1 Si 157.727 35.2114 1.63253 0
318 1 Si 164.715 31.8416 1.6307 0
319 1 Si 162.335 33.7641 1.6014 0
320 1 Si 169.462 31.7262 1.61384 0
321 1 Si 167.177 33.7223 1.62873 0
322 1 Si 172.169 33.3746 1.61319 0
323 1 Si 111.017 34.9625 1.62802 0
324 1 Si 107.714 35.5834 1.62057 0
325 1 Si 112.949 37.6342 1.60977 0
326 1 Si 118.588 36.5757 1.63089 0
327 1 Si 116.098 38.6301 1.62152 0
328 1 Si 123.309 35.0087 1.61542 0
329 1 Si 126.416 34.9083 1.63685 0
330 1 Si 135.301 32.8035 1.62709 0
331 1 Si 132.369 33.8557 1.6345 0
332 1 Si 137.484 35.007 1.62287 0
333 1 Si 146.971 35.7225 1.62293 0
334 1 Si 149.981 35.0175 1.62205 0
335 1 Si 181.282 34.0238 1.6268 0
336 1 Si 178.021 34.4029 1.62551 0
337 1 Si 186.61 34.0508 1.62803 0
338 1 Si 183.873 35.9204 1.62915 0
339 1 Si 189.677 35.0864 1.62417 0
340 1 Si 199.222 34.5313 1.61725 0
341 1 Si 196.217 35.6003 1.63112 0
342 1 Si 202.054 36.0659 1.622 0
343 1 Si 105.865 38.3562 1.62476 0
344 1 Si 108.098 40.7865 1.63337 0
345 1 Si 111.315 40.4232 1.625 0
346 1 Si 121.7 37.776 1.63602 0
347 1 Si 128.331 37.3819 1.64313 0
348 1 Si 131.46 36.8929 1.62415 0
349 1 Si 145.524 38.5737 1.6172 0
350 1 Si 142.432 37.7741 1.61628 0
351 1 Si 152.361 37.0875 1.62999 0
352 1 Si 164.186 36.4117 1.64518 0
353 1 Si 159.487 37.9723 1.62131 0
354 1 Si 162.586 39.0517 1.61255 0
355 1 Si 167.364 36.8445 1.60665 0
356 1 Si 172.778 36.5421 1.63604 0
357 1 Si 170.125 38.5116 1.6355 0
358 1 Si 176.04 37.1062 1.62544 0
359 1 Si 183.632 39.1909 1.63355 0
360 1 Si 176.842 40.2912 1.63822 0
361 1 Si 180.435 40.7749 1.62146 0
362 1 Si 189.809 38.615 1.64217 0
363 1 Si 186.853 40.4745 1.63581 0
364 1 Si 158.352 58.4634 1.62685 0
365 1 Si 161.01 56.7382 1.61268 0
366 1 Si 152.725 60.8313 1.61865 0
367 1 Si 158.029 61.5544 1.62286 0
368 1 Si 155.196 63.0828 1.60707 0
369 1 Si 5.49261 35.0641 1.61803 0
370 1 Si 6.78121 29.9518 1.62388 0
371 1 Si 7.86344 32.9144 1.60344 0
372 1 Si 102.526 39.0087 1.62998 0
373 1 Si 100.109 34.3141 1.64525 0
374 1 Si 99.5217 37.5256 1.61514 0
375 1 Si 126.918 40.1788 1.6313 0
376 1 Si 123.707 40.4808 1.61141 0
377 1 Si 133.694 39.1977 1.63093 0
378 1 Si 136.819 38.1649 1.63938 0
379 1 Si 152.518 40.243 1.62868 0
380 1 Si 146.506 41.677 1.63542 0
381 1 Si 149.851 42.1666 1.63325 0
382 1 Si 195.814 38.9214 1.63567 0
383 1 Si 192.749 40.4812 1.62593 0
384 1 Si 202 39.4605 1.63596 0
385 1 Si 198.752 40.6646 1.62123 0
386 1 Si 0.739845 41.5643 1.62404 0
387 1 Si 4.26492 40.9606 1.62594 0
388 1 Si 6.52603 38.3189 1.62801 0
389 1 Si 9.31303 6.15025 1.6129 0
390 1 Si 10.564 9.42158 1.6278 0
391 1 Si 8.4586 11.7886 1.63445 0
392 1 Si 11.7017 3.83218 1.62455 0
393 1 Si 11.2864 0.392805 1.61294 0
394 1 Si 8.27997 174.79 1.62222 0
395 1 Si 14.4678 5.63172 1.61825 0
396 1 Si 15.3776 8.85741 1.62657 0
397 1 Si 13.508 11.4512 1.62244 0
398 1 Si 17.1702 3.91084 1.62256 0
399 1 Si 17.3396 0.580141 1.61745 0
400 1 Si 12.7656 172.931 1.62116 0
401 1 Si 15.992 173.101 1.63355 0
402 1 Si 107.209 43.8775 1.62932 0
403 1 Si 104.075 44.1901 1.64251 0
404 1 Si 101.745 42.0835 1.64239 0
405 1 Si 19.0891 6.59482 1.61513 0
406 1 Si 18.4584 9.84534 1.61035 0
407 1 Si 23.9054 3.99623 1.62472 0
408 1 Si 22.177 6.524 1.63668 0
409 1 Si 22.9672 1.04788 1.63615 0
410 1 Si 20.2915 175.125 1.62675 0
411 1 Si 113.319 42.9655 1.63173 0
412 1 Si 116.358 41.8958 1.62398 0
413 1 Si 27.03 4.41505 1.6294 0
414 1 Si 29.108 6.82517 1.63855 0
415 1 Si 27.1632 9.20965 1.59983 0
416 1 Si 24.08 8.96297 1.59591 0
417 1 Si 28.0905 1.51834 1.64596 0
418 1 Si 25.6801 175.148 1.63049 0
419 1 Si 33.2066 3.53707 1.62608 0
420 1 Si 32.3392 6.79123 1.62329 0
421 1 Si 36.3699 2.74962 1.62225 0
422 1 Si 38.4923 5.5013 1.6418 0
423 1 Si 34.3815 9.5088 1.60779 0
424 1 Si 37.5482 8.72049 1.61317 0
425 1 Si 31.1503 0.889463 1.63301 0
426 1 Si 36.3928 174.883 1.63083 0
427 1 Si 34.133 172.223 1.63259 0
428 1 Si 31.0929 173.169 1.63296 0
429 1 Si 129.015 42.5634 1.62647 0
430 1 Si 132.256 42.1059 1.63597 0
431 1 Si 43.1724 2.36872 1.64454 0
432 1 Si 41.8015 5.38611 1.63355 0
433 1 Si 42.226 174.884 1.62433 0
434 1 Si 39.3093 173.557 1.6365 0
435 1 Si 46.335 2.32188 1.62709 0
436 1 Si 47.9828 5.0869 1.63143 0
437 1 Si 46.9025 8.13251 1.64055 0
438 1 Si 43.6286 8.26111 1.63857 0
439 1 Si 48.1515 175.299 1.62665 0
440 1 Si 44.2048 172.292 1.62248 0
441 1 Si 47.4211 172.147 1.652 0
442 1 Si 51.0399 4.17386 1.64012 0
443 1 Si 53.0853 6.7534 1.63913 0
444 1 Si 52.1583 10.0194 1.62806 0
445 1 Si 48.8907 10.7978 1.64698 0
446 1 Si 51.1138 0.862637 1.62326 0
447 1 Si 139.746 39.5516 1.62839 0
448 1 Si 56.6854 2.38856 1.61418 0
449 1 Si 56.0585 5.49527 1.63722 0
450 1 Si 55.9119 174.928 1.63798 0
451 1 Si 52.9947 173.761 1.63054 0
452 1 Si 59.8028 2.12702 1.62518 0
453 1 Si 61.5462 4.67208 1.62872 0
454 1 Si 59.0554 6.70897 1.62814 0
455 1 Si 60.9734 174.899 1.61841 0
456 1 Si 58.4483 173.041 1.61354 0
457 1 Si 158.579 41.0261 1.63793 0
458 1 Si 155.438 41.6609 1.63514 0
459 1 Si 64.685 4.03865 1.63984 0
460 1 Si 66.2676 6.77021 1.62519 0
461 1 Si 60.087 9.66994 1.63157 0
462 1 Si 63.5182 8.89247 1.62665 0
463 1 Si 66.1234 1.11232 1.64485 0
464 1 Si 64.0506 174.323 1.6315 0
465 1 Si 71.08 3.07501 1.6465 0
466 1 Si 69.6197 6.2024 1.64207 0
467 1 Si 69.2912 0.297425 1.64424 0
468 1 Si 74.3514 2.41331 1.65429 0
469 1 Si 75.9047 5.29973 1.62798 0
470 1 Si 74.7027 8.37903 1.61737 0
471 1 Si 71.5407 8.91579 1.63451 0
472 1 Si 75.913 174.96 1.63398 0
473 1 Si 73.8848 172.185 1.6326 0
474 1 Si 70.4382 172.695 1.64417 0
475 1 Si 79.0992 5.23256 1.63164 0
476 1 Si 79.2147 8.59603 1.62256 0
477 1 Si 76.8015 10.856 1.62207 0
478 1 Si 80.8304 2.2479 1.63692 0
479 1 Si 79.3793 174.747 1.62653 0
480 1 Si 85.3634 5.44556 1.63282 0
481 1 Si 84.299 8.29758 1.61886 0
482 1 Si 84.0933 2.56556 1.63575 0
483 1 Si 81.8882 10.2351 1.63523 0
484 1 Si 170.271 41.8171 1.62216 0
485 1 Si 88.4522 6.05995 1.62822 0
486 1 Si 89.4774 8.98319 1.65209 0
487 1 Si 86.6965 10.2613 1.62876 0
488 1 Si 89.3921 3.12887 1.62664 0
489 1 Si 86.9284 1.0629 1.62721 0
490 1 Si 94.3731 5.59915 1.61739 0
491 1 Si 92.5056 2.91022 1.62108 0
492 1 Si 94.4824 8.85523 1.6277 0
493 1 Si 91.992 10.8119 1.62839 0
494 1 Si 97.4217 4.76045 1.60743 0
495 1 Si 97.8739 1.61582 1.63107 0
496 1 Si 95.944 174.657 1.62842 0
497 1 Si 92.9023 175.285 1.62585 0
498 1 Si 173.803 42.3127 1.62983 0
499 1 Si 180.893 44.0041 1.63081 0
500 1 Si 174.763 45.418 1.62352 0
501 1 Si 178.061 45.6933 1.6255 0
502 1 Si 98.8646 7.61842 1.62429 0
503 1 Si 97.2991 10.419 1.60897 0
504 1 Si 100.652 0.180378 1.6177 0
505 1 Si 186.985 43.8399 1.6358 0
506 1 Si 183.977 45.2901 1.63673 0
507 1 Si 192.703 43.974 1.63189 0
508 1 Si 189.813 45.8063 1.62758 0
509 1 Si 198.369 43.9155 1.6246 0
510 1 Si 195.618 45.714 1.63373 0
511 1 Si 109.077 46.5499 1.63882 0
512 1 Si 112.291 46.0654 1.63283 0
513 1 Si 124.239 43.7445 1.63487 0
514 1 Si 118.463 44.31 1.60873 0
515 1 Si 121.484 45.2695 1.6263 0
516 1 Si 26.4438 12.1937 1.64771 0
517 1 Si 34.4812 12.9036 1.6247 0
518 1 Si 28.4524 14.5012 1.61282 0
519 1 Si 31.6969 14.6293 1.61589 0
520 1 Si 127.241 45.2063 1.60824 0
521 1 Si 39.2923 11.5282 1.62637 0
522 1 Si 42.5335 11.4322 1.63892 0
523 1 Si 140.316 42.6565 1.62354 0
524 1 Si 134.265 44.5804 1.63091 0
525 1 Si 137.557 44.4548 1.60949 0
526 1 Si 143.563 43.4602 1.59055 0
527 1 Si 54.2226 12.6602 1.64974 0
528 1 Si 57.6088 12.1114 1.60584 0
529 1 Si 64.4144 11.8628 1.63695 0
530 1 Si 67.4741 12.5314 1.61696 0
531 1 Si 70.5297 12.0087 1.64435 0
532 1 Si 86.0629 13.2626 1.61633 0
533 1 Si 82.8826 13.2845 1.61572 0
534 1 Si 200.966 45.8801 1.63061 0
535 1 Si 204.087 44.9082 1.62205 0
536 1 Si 9.83169 14.6737 1.59103 0
537 1 Si 7.57598 16.8915 1.61682 0
538 1 Si 107.441 49.3577 1.61478 0
539 1 Si 104.262 49.4705 1.62413 0
540 1 Si 102.568 46.9123 1.62622 0
541 1 Si 12.3848 16.5652 1.62948 0
542 1 Si 15.0119 14.8683 1.64854 0
543 1 Si 114.434 48.5377 1.64477 0
544 1 Si 117.445 47.3452 1.60103 0
545 1 Si 23.3518 11.968 1.61793 0
546 1 Si 20.3002 12.6844 1.65393 0
547 1 Si 132.626 47.4016 1.602 0
548 1 Si 129.213 47.8789 1.65378 0
549 1 Si 37.5769 14.3515 1.61501 0
550 1 Si 142.067 46.3837 1.62143 0
551 1 Si 138.865 47.3404 1.57998 0
552 1 Si 47.587 13.9473 1.65385 0
553 1 Si 44.245 14.3877 1.63463 0
554 1 Si 144.672 48.1041 1.62809 0
555 1 Si 52.8187 15.8282 1.642 0
556 1 Si 49.5307 16.6992 1.64469 0
557 1 Si 62.2904 14.2701 1.63478 0
558 1 Si 59.1977 14.937 1.61303 0
559 1 Si 67.0345 15.55 1.61463 0
560 1 Si 64.2254 16.6828 1.62704 0
561 1 Si 71.3566 15.1518 1.6405 0
562 1 Si 76.5091 14.2099 1.62305 0
563 1 Si 74.1658 16.4793 1.62256 0
564 1 Si 173.074 48.3192 1.63219 0
565 1 Si 178.357 48.8482 1.62324 0
566 1 Si 175.579 50.512 1.63008 0
567 1 Si 91.6128 14.0626 1.62773 0
568 1 Si 88.4843 15.3812 1.65298 0
569 1 Si 183.947 48.5145 1.62802 0
570 1 Si 181.214 50.1986 1.6178 0
571 1 Si 97.5763 13.7093 1.63547 0
572 1 Si 94.6302 15.465 1.63147 0
573 1 Si 189.528 49.3477 1.63292 0
574 1 Si 186.428 50.5004 1.62752 0
575 1 Si 196.637 48.9867 1.6262 0
576 1 Si 191.534 52.1856 1.6323 0
577 1 Si 195.094 52.0927 1.63384 0
578 1 Si 200.004 48.9956 1.63757 0
579 1 Si 2.17305 47.4796 1.62002 0
580 1 Si 5.3103 46.8016 1.63848 0
581 1 Si 6.22866 43.7061 1.61574 0
582 1 Si 107.639 52.5821 1.62969 0
583 1 Si 113.504 51.7161 1.61641 0
584 1 Si 110.718 53.5089 1.62122 0
585 1 Si 26.2446 16.8696 1.62166 0
586 1 Si 31.7767 17.8 1.62433 0
587 1 Si 28.7637 18.7222 1.60893 0
588 1 Si 120.473 48.2275 1.61884 0
589 1 Si 39.1649 17.4692 1.63841 0
590 1 Si 42.7346 17.5683 1.63324 0
591 1 Si 135.75 48.578 1.62936 0
592 1 Si 54.7904 18.4739 1.64537 0
593 1 Si 58.0432 18.0112 1.648 0
594 1 Si 143.774 51.0708 1.59077 0
595 1 Si 69.3354 17.5595 1.60723 0
596 1 Si 78.6573 16.6455 1.62419 0
597 1 Si 81.8032 16.2772 1.63405 0
598 1 Si 8.76232 19.8791 1.62934 0
599 1 Si 7.22328 22.7424 1.63546 0
600 1 Si 12.0037 19.7615 1.63246 0
601 1 Si 202.336 51.4661 1.63922 0
602 1 Si 1.75978 50.8182 1.61953 0
603 1 Si 20.3689 16.0069 1.63367 0
604 1 Si 17.4837 17.4924 1.64218 0
605 1 Si 23.1581 17.8614 1.64124 0
606 1 Si 104.718 54.2085 1.62188 0
607 1 Si 102.396 52.0192 1.63729 0
608 1 Si 121.352 51.2278 1.63256 0
609 1 Si 115.779 54.0294 1.63138 0
610 1 Si 118.995 53.5274 1.61686 0
611 1 Si 127.666 50.8236 1.63424 0
612 1 Si 124.525 51.9554 1.61407 0
613 1 Si 33.7787 20.282 1.63455 0
614 1 Si 37.0885 20.2543 1.64399 0
615 1 Si 48.2799 19.9776 1.62654 0
616 1 Si 44.851 20.551 1.62591 0
617 1 Si 135.685 51.6628 1.63882 0
618 1 Si 132.936 53.2484 1.61065 0
619 1 Si 129.759 53.2835 1.6229 0
620 1 Si 138.461 53.1563 1.59288 0
621 1 Si 141.606 53.2628 1.64885 0
622 1 Si 53.6304 21.5416 1.63151 0
623 1 Si 50.5568 22.5593 1.61653 0
624 1 Si 65.0878 19.6998 1.63253 0
625 1 Si 59.8413 20.7424 1.6143 0
626 1 Si 62.874 21.8599 1.62579 0
627 1 Si 68.1785 20.425 1.63978 0
628 1 Si 74.5305 19.7123 1.62622 0
629 1 Si 77.6652 19.744 1.63224 0
630 1 Si 87.079 18.4098 1.62645 0
631 1 Si 83.7719 18.9078 1.6256 0
632 1 Si 176.13 53.803 1.61362 0
633 1 Si 171.008 55.6762 1.63124 0
634 1 Si 174.218 56.4773 1.62064 0
635 1 Si 181.608 53.3714 1.61527 0
636 1 Si 179.053 55.3526 1.62445 0
637 1 Si 94.3155 18.7031 1.62206 0
638 1 Si 88.801 21.1939 1.62405 0
639 1 Si 91.9858 20.8868 1.61274 0
640 1 Si 184.83 53.3583 1.62498 0
641 1 Si 96.1884 21.257 1.62767 0
642 1 Si 99.3205 21.153 1.62554 0
643 1 Si 186.44 56.0517 1.62246 0
644 1 Si 189.691 55.158 1.61537 0
645 1 Si 200.803 54.5068 1.61617 0
646 1 Si 197.349 54.9629 1.61493 0
647 1 Si 4.97111 52.6284 1.62508 0
648 1 Si 7.76833 48.9475 1.59733 0
649 1 Si 8.38098 52.1358 1.60007 0
650 1 Si 28.6604 21.8604 1.62153 0
651 1 Si 23.1294 21.1306 1.61844 0
652 1 Si 25.7379 23.0846 1.62971 0
653 1 Si 111.069 56.7325 1.61692 0
654 1 Si 114.327 56.9537 1.61774 0
655 1 Si 31.6948 22.8174 1.63035 0
656 1 Si 120.688 56.2372 1.61206 0
657 1 Si 123.721 55.097 1.62807 0
658 1 Si 37.8477 23.4652 1.63607 0
659 1 Si 43.9012 23.9824 1.63902 0
660 1 Si 40.7242 24.9513 1.63102 0
661 1 Si 137.278 56.0551 1.60185 0
662 1 Si 134.185 56.1395 1.61337 0
663 1 Si 58.6216 23.6962 1.62281 0
664 1 Si 55.5134 24.164 1.62334 0
665 1 Si 143.038 56.089 1.62922 0
666 1 Si 146.279 56.5538 1.63661 0
667 1 Si 73.1169 22.6002 1.62605 0
668 1 Si 69.9789 22.9817 1.63274 0
669 1 Si 79.1643 22.62 1.62971 0
670 1 Si 82.3866 21.955 1.65295 0
671 1 Si 202.902 57.1231 1.62367 0
672 1 Si 2.07303 56.9523 1.5896 0
673 1 Si 5.09741 55.8295 1.63212 0
674 1 Si 14.3881 22.0588 1.62328 0
675 1 Si 9.70309 24.9204 1.61625 0
676 1 Si 13.0452 25.0192 1.63068 0
677 1 Si 108.876 59.1897 1.6502 0
678 1 Si 105.49 59.5212 1.63033 0
679 1 Si 103.198 57.1185 1.63809 0
680 1 Si 17.5691 21.015 1.62095 0
681 1 Si 20.4431 22.9997 1.62333 0
682 1 Si 116.051 59.7436 1.62361 0
683 1 Si 119.395 59.3287 1.62605 0
684 1 Si 125.866 57.4559 1.63264 0
685 1 Si 128.845 56.3493 1.62151 0
686 1 Si 32.4123 25.9395 1.63379 0
687 1 Si 35.6227 25.8895 1.62773 0
688 1 Si 140.116 57.3835 1.62504 0
689 1 Si 45.7596 26.8758 1.61128 0
690 1 Si 51.1987 25.9327 1.62949 0
691 1 Si 48.8382 28.1688 1.63145 0
692 1 Si 147.549 59.489 1.63117 0
693 1 Si 149.743 61.8941 1.64408 0
694 1 Si 60.6947 26.1332 1.62695 0
695 1 Si 63.6737 24.9984 1.60865 0
696 1 Si 166.502 56.6528 1.61328 0
697 1 Si 163.795 58.164 1.65605 0
698 1 Si 74.342 25.6173 1.62766 0
699 1 Si 77.6158 25.6589 1.63247 0
700 1 Si 169.19 58.4597 1.60513 0
701 1 Si 84.1165 24.7119 1.64903 0
702 1 Si 87.4014 24.2153 1.62587 0
703 1 Si 93.8984 23.4219 1.59606 0
704 1 Si 179.112 58.7017 1.62111 0
705 1 Si 175.87 59.5269 1.62219 0
706 1 Si 184.826 58.9988 1.62668 0
707 1 Si 181.876 60.7806 1.66662 0
708 1 Si 190.449 58.2991 1.64121 0
709 1 Si 187.777 60.23 1.62415 0
710 1 Si 196.564 58.3823 1.63516 0
711 1 Si 193.477 59.4766 1.63689 0
712 1 Si 201.824 60.2496 1.61656 0
713 1 Si 198.684 61.1774 1.64244 0
714 1 Si 4.12297 59.3568 1.61186 0
715 1 Si 7.14255 58.4203 1.59658 0
716 1 Si 110.751 61.8257 1.62517 0
717 1 Si 113.996 62.35 1.63336 0
718 1 Si 25.0755 26.242 1.61642 0
719 1 Si 21.7374 26.2014 1.61961 0
720 1 Si 27.2655 28.7773 1.62638 0
721 1 Si 30.6198 28.738 1.62459 0
722 1 Si 121.686 61.7033 1.61506 0
723 1 Si 124.732 60.4894 1.6052 0
724 1 Si 39.8241 28.0633 1.62022 0
725 1 Si 44.511 29.8613 1.62253 0
726 1 Si 41.4827 30.7149 1.63846 0
727 1 Si 54.3469 27.195 1.60932 0
728 1 Si 131.603 57.8401 1.626 0
729 1 Si 59.8982 29.2476 1.63417 0
730 1 Si 56.5626 29.914 1.63216 0
731 1 Si 139.512 60.3541 1.63112 0
732 1 Si 131.861 60.8328 1.61467 0
733 1 Si 137.34 62.52 1.62389 0
734 1 Si 134.326 62.6184 1.61179 0
735 1 Si 69.2362 26.0677 1.61594 0
736 1 Si 66.1989 27.046 1.63563 0
737 1 Si 142.314 61.4914 1.60456 0
738 1 Si 145.286 61.5007 1.65729 0
739 1 Si 71.9471 27.8747 1.62981 0
740 1 Si 82.5142 27.6751 1.63908 0
741 1 Si 79.2198 28.6015 1.62326 0
742 1 Si 89.3701 26.836 1.62182 0
743 1 Si 92.6098 26.3404 1.63763 0
744 1 Si 9.17349 27.9717 1.63549 0
745 1 Si 14.5988 27.9547 1.62561 0
746 1 Si 11.8758 29.5368 1.612 0
747 1 Si 204.092 62.5495 1.62508 0
748 1 Si 3.20521 62.2989 1.62283 0
749 1 Si 20.543 29.3436 1.62365 0
750 1 Si 17.2614 29.9081 1.62802 0
751 1 Si 103.989 62.4728 1.64618 0
752 1 Si 109.189 64.59 1.642 0
753 1 Si 106.027 65.0417 1.6379 0
754 1 Si 114.382 65.6257 1.63026 0
755 1 Si 121.883 65.0311 1.61546 0
756 1 Si 116.781 67.9091 1.61939 0
757 1 Si 120.141 67.8013 1.63006 0
758 1 Si 36.7723 28.8348 1.62972 0
759 1 Si 129.665 62.9818 1.6158 0
760 1 Si 126.579 63.0543 1.63312 0
761 1 Si 141.676 64.4685 1.6224 0
762 1 Si 138.777 65.2479 1.62095 0
763 1 Si 49.2815 31.5441 1.59002 0
764 1 Si 46.2583 32.4789 1.62067 0
765 1 Si 146.069 64.4659 1.63583 0
766 1 Si 149.054 65.0912 1.60463 0
767 1 Si 65.8144 30.3057 1.62838 0
768 1 Si 62.6108 31.2537 1.64032 0
769 1 Si 163.792 61.2682 1.63059 0
770 1 Si 160.976 62.6179 1.63992 0
771 1 Si 169.202 61.882 1.6435 0
772 1 Si 166.241 63.3125 1.63261 0
773 1 Si 174.901 62.9315 1.61769 0
774 1 Si 171.735 64.0782 1.62013 0
775 1 Si 84.6835 30.0811 1.63397 0
776 1 Si 87.9763 29.791 1.64609 0
777 1 Si 181.74 64.4276 1.61798 0
778 1 Si 176.422 65.9973 1.61895 0
779 1 Si 179.551 66.9934 1.62142 0
780 1 Si 94.6671 28.7045 1.62414 0
781 1 Si 97.7519 29.1256 1.6209 0
782 1 Si 187.812 63.3827 1.61606 0
783 1 Si 183.742 67.1596 1.61268 0
784 1 Si 186.728 66.367 1.63633 0
785 1 Si 193.357 62.6327 1.63307 0
786 1 Si 190.763 64.2341 1.63613 0
787 1 Si 198.221 64.7135 1.62949 0
788 1 Si 195.192 65.1832 1.64269 0
789 1 Si 100.687 62.9399 1.64327 0
790 1 Si 99.7367 57.4235 1.63833 0
791 1 Si 98.3779 60.4577 1.62936 0
792 1 Si 111.379 66.8973 1.62643 0
793 1 Si 25.9186 31.8042 1.62612 0
794 1 Si 22.6362 32.0546 1.6194 0
795 1 Si 35.5157 31.8108 1.64655 0
796 1 Si 32.315 31.6278 1.62362 0
797 1 Si 132.164 64.7873 1.61725 0
798 1 Si 40.3555 33.7064 1.62735 0
799 1 Si 37.2749 34.5724 1.63675 0
800 1 Si 50.2895 34.7919 1.63092 0
801 1 Si 56.1993 33.3468 1.62222 0
802 1 Si 53.5121 35.4603 1.62599 0
803 1 Si 125.021 65.8027 1.61406 0
804 1 Si 143.857 66.5571 1.62349 0
805 1 Si 71.8053 31.2094 1.6205 0
806 1 Si 68.558 32.2874 1.62837 0
807 1 Si 161.593 65.6434 1.63058 0
808 1 Si 155.839 66.3045 1.63746 0
809 1 Si 158.941 67.3414 1.6309 0
810 1 Si 77.9171 31.9491 1.64564 0
811 1 Si 74.5991 33.3039 1.6325 0
812 1 Si 83.4644 33.032 1.62605 0
813 1 Si 80.4408 34.176 1.62496 0
814 1 Si 164.744 66.1865 1.63799 0
815 1 Si 89.7486 32.5277 1.6075 0
816 1 Si 94.6726 31.802 1.62283 0
817 1 Si 92.6067 34.043 1.6238 0
818 1 Si 203.183 65.5126 1.62741 0
819 1 Si 198.307 68.3933 1.62581 0
820 1 Si 201.305 67.9395 1.65356 0
821 1 Si 97.728 32.2675 1.59783 0
822 1 Si 1.17701 67.7609 1.60938 0
823 1 Si 4.20209 67.4076 1.61817 0
824 1 Si 5.47981 64.5564 1.63149 0
825 1 Si 105.17 68.1906 1.64786 0
826 1 Si 110.428 69.9567 1.64111 0
827 1 Si 107.285 70.7353 1.64602 0
828 1 Si 10.9775 32.5056 1.64914 0
829 1 Si 132.433 67.7929 1.63049 0
830 1 Si 126.663 68.5151 1.64263 0
831 1 Si 129.704 69.2741 1.62111 0
832 1 Si 16.4404 33.0811 1.61367 0
833 1 Si 13.478 34.334 1.6313 0
834 1 Si 138.16 68.2406 1.6258 0
835 1 Si 135.218 69.1659 1.60704 0
836 1 Si 27.8664 34.4057 1.60067 0
837 1 Si 31.0607 34.5575 1.61052 0
838 1 Si 143.158 69.5589 1.63915 0
839 1 Si 140.24 70.5928 1.6237 0
840 1 Si 148.246 68.2189 1.63736 0
841 1 Si 146.039 70.5573 1.62087 0
842 1 Si 45.3286 35.558 1.63432 0
843 1 Si 42.205 36.3004 1.61284 0
844 1 Si 153.812 68.7925 1.61237 0
845 1 Si 150.844 69.8418 1.61971 0
846 1 Si 47.9894 37.3668 1.62185 0
847 1 Si 62.2738 34.4896 1.6402 0
848 1 Si 59.0659 35.2061 1.60965 0
849 1 Si 171.389 67.5056 1.61993 0
850 1 Si 165.509 69.3212 1.63692 0
851 1 Si 168.795 69.7983 1.63141 0
852 1 Si 68.0136 35.554 1.64038 0
853 1 Si 64.8846 36.6655 1.63096 0
854 1 Si 174.465 68.71 1.60887 0
855 1 Si 180.41 70.3729 1.61918 0
856 1 Si 183.691 70.5974 1.62228 0
857 1 Si 88.6357 35.4939 1.61923 0
858 1 Si 85.5217 35.4519 1.62594 0
859 1 Si 191.213 67.276 1.64072 0
860 1 Si 188.656 68.9222 1.63683 0