LAMMPS data file via write_data, version 23 Jun 2022, timestep = 7855

15444 atoms
2 atom types

5.547418361051214 197.75151134931568 xlo xhi
4.2739599524695775 172.49193452476874 ylo yhi
-100 100 zlo zhi

Masses

1 28.085
2 15.999

Atoms # full

6593 1 1 0 11.576554484768005 5.169767809668552 -1.6471001517825925 0 0 0
9279 1 2 0 13.118378281195067 4.77234310338368 -2.111894443017772 0 0 0
9606 1 2 0 16.105117260295348 4.451154325147315 -2.1313741890837745 0 0 0
6815 1 1 0 17.68805196788306 4.5278148066181405 -1.624198811933255 0 0 0
9611 1 2 0 18.169768452573322 6.04862436265086 -2.0359118527264846 0 0 0
9616 1 2 0 22.73641489601485 6.436445817486582 -2.0834799486913558 0 0 0
6821 1 1 0 23.900317062885296 5.37655888018351 -1.6315891097705904 0 0 0
9625 1 2 0 25.43768309310464 5.725120236368062 -2.083323425682388 0 0 0
6826 1 1 0 26.991155592994726 5.519850521640217 -1.6170038439714094 0 0 0
9630 1 2 0 28.09320403699663 6.6482760199569215 -2.009500193032905 0 0 0
9642 1 2 0 32.664056994596685 4.948532374407305 -2.140517699072802 0 0 0
6832 1 1 0 33.22668753859065 6.385997243861141 -1.6351126662862885 0 0 0
9643 1 2 0 34.76915296685528 6.520393212497587 -2.0669571690636137 0 0 0
6837 1 1 0 36.23466840185929 6.028135038579534 -1.6319085053485978 0 0 0
9652 1 2 0 36.3933043924854 4.506146049210499 -2.132208100766318 0 0 0
9658 1 2 0 41.41721549837292 5.570452634061891 -2.1801285386917377 0 0 0
9670 1 2 0 46.632803200879174 4.835542107452349 -2.0617785850317154 0 0 0
6848 1 1 0 46.72834871342473 6.459564525098921 -1.6332323094501882 0 0 0
6856 1 1 0 51.810060215365716 5.958529714383301 -1.6321647026475372 0 0 0
9683 1 2 0 53.3033714314878 6.638819562753869 -2.0457545075464365 0 0 0
9690 1 2 0 55.905534288537865 6.029459562097573 -2.012238231523722 0 0 0
6866 1 1 0 57.01717701918382 4.859505763293589 -1.6283820531309154 0 0 0
6865 1 1 0 60.07044370512896 5.535603936772066 -1.608483709205661 0 0 0
9698 1 2 0 58.52094214594877 5.331182850428903 -2.129715809767043 0 0 0
6872 1 1 0 65.31506310303475 4.3049255254954435 -1.6071407861012177 0 1 0
9707 1 2 0 65.65404285245393 5.8547900066374545 -2.0035106730903838 0 0 0
6887 1 1 0 73.47613278185214 5.482498971756539 -1.6342412754865216 0 0 0
9735 1 2 0 75.05939447819797 5.393409767468659 -2.0811935922927822 0 0 0
6893 1 1 0 76.63594996482745 5.344575683788269 -1.6118632423406414 0 0 0
9747 1 2 0 82.84903801392578 6.2162134237316105 -2.0815783584816483 0 0 0
6900 1 1 0 83.64956001603768 4.861480579699217 -1.6495600195900497 0 0 0
9757 1 2 0 85.19925734764134 4.747461618644303 -2.155384575185509 0 0 0
6904 1 1 0 86.71144774737239 4.598253423808018 -1.5742450789168467 0 0 0
9761 1 2 0 87.6877242051306 5.847164579730986 -1.9209052907752087 0 0 0
9768 1 2 0 92.0090485273915 6.0891502228918695 -1.9415401661352794 0 0 0
6911 1 1 0 92.15749422088645 4.502351806896346 -1.6081757255717888 0 0 0
9779 1 2 0 96.10251416432267 4.873546994885454 -1.963565591081488 0 0 0
6914 1 1 0 97.41132756083066 5.8145126140688665 -1.6163546969926887 0 0 0
9780 1 2 0 98.74660381657107 4.87421019662648 -2.1047441686218873 0 0 0
9228 1 2 0 6.317514612507007 8.416312710176554 -2.118027001012792 0 0 0
9272 1 2 0 9.314503083578511 8.570693652897301 -2.084192484072797 0 0 0
9276 1 2 0 11.220372323257063 6.678176669282106 -2.1669003935670834 0 0 0
6592 1 1 0 10.881748799038995 8.191416932971748 -1.6424540981781142 0 0 0
9277 1 2 0 12.220141949784189 9.06630319858798 -2.1152413820092293 0 0 0
6813 1 1 0 18.646030876547222 7.567737706347856 -1.6178612972167001 0 0 0
9610 1 2 0 17.651554155542833 8.797098022566677 -2.133580442724146 0 0 0
9612 1 2 0 20.212018164661146 7.658257583532865 -2.109974926058898 0 0 0
6816 1 1 0 21.777506109622248 7.685320687521932 -1.6301877956327975 0 0 0
9615 1 2 0 22.486746372240866 9.051360907151867 -2.159880409834047 0 0 0
6824 1 1 0 28.665030954013215 8.106097657017658 -1.6099696804951062 0 0 0
9629 1 2 0 27.503477870472235 9.070310744050765 -2.1593741308338608 0 0 0
9631 1 2 0 30.106855897040194 8.634083181667657 -2.1280229700627347 0 0 0
6828 1 1 0 31.62114145637938 8.967980578739192 -1.6427287954156207 0 0 0
9636 1 2 0 32.44801507284964 7.687463839845568 -2.191039879230735 0 0 0
9648 1 2 0 37.40726419464022 6.980121902787159 -2.1944286949452496 0 0 0
6835 1 1 0 38.44405294598058 8.085064589865349 -1.638898715705815 0 0 0
9649 1 2 0 39.975690383116074 7.812440001138068 -2.086764785778215 0 0 0
6841 1 1 0 41.34539579966504 7.087767568374367 -1.6246012424809801 0 0 0
9657 1 2 0 42.723332476956585 7.78467183225749 -2.091635238878382 0 0 0
6842 1 1 0 44.188218160120265 8.304016886495255 -1.6257178314688023 0 0 0
9660 1 2 0 45.408271649532004 7.324850660343662 -2.1379177433904055 0 0 0
9669 1 2 0 48.06725159170768 7.373869826599406 -2.0521872084272115 0 0 0
6849 1 1 0 49.41241976200187 8.293114221298486 -1.635612654910018 0 0 0
9672 1 2 0 50.65131439698769 7.166482564901939 -2.0708528702123785 0 0 0
6860 1 1 0 54.82696115841001 7.232914526231332 -1.6130701050104184 0 0 0
9687 1 2 0 55.372412878583106 8.789521181791532 -2.053550343757425 0 0 0
9694 1 2 0 60.74619691291155 8.92016512552426 -2.093133406190188 0 0 0
6864 1 1 0 62.08693259395165 7.975705399876392 -1.611814576857009 0 0 0
9696 1 2 0 61.10381748706464 6.723510164283838 -2.086196768865724 0 0 0
9697 1 2 0 63.74487264390614 7.862368813117984 -2.05893559463196 0 0 0
6871 1 1 0 65.3568375597076 7.433252417361515 -1.6250677163996172 0 0 0
9708 1 2 0 66.85662097262004 8.085049190242005 -2.103534195657693 0 0 0
6876 1 1 0 68.37071903295922 8.675764420564832 -1.6064274780978505 0 0 0
9716 1 2 0 69.94093583941992 8.195092236774617 -2.072101993995119 0 0 0
9728 1 2 0 72.46794560404227 6.696677576721816 -2.1306701639219 0 0 0
6883 1 1 0 71.56396313293985 7.994184363796721 -1.6080006061883891 0 0 0
6892 1 1 0 76.9130524938209 8.456831753860572 -1.6140522472865544 0 0 0
9742 1 2 0 77.06494538849311 6.871020551176437 -1.981636806845947 0 0 0
9743 1 2 0 78.38027129283333 8.969817729546289 -2.1536591465431436 0 0 0
9745 1 2 0 81.18936296595797 8.515755241810247 -2.150208302495248 0 0 0
6894 1 1 0 82.55952211093658 7.759542839499449 -1.6271756881946629 0 0 0
9746 1 2 0 83.96632866652307 8.459519687569102 -2.0792830655158165 0 0 0
6896 1 1 0 85.48713636833189 8.828946874739982 -1.6348481158766945 0 0 0
9750 1 2 0 86.81736705860898 8.054623386979763 -2.164705932241059 0 0 0
6903 1 1 0 88.16590345365178 7.3480897974186306 -1.5884043631150357 0 0 0
9762 1 2 0 89.68664332546699 7.545965745262622 -2.1439096253031793 0 0 0
6907 1 1 0 91.23403691904582 7.484947447929115 -1.6195017788948687 0 0 0
9767 1 2 0 92.15051940757446 8.718867197775356 -2.1507799412330253 0 0 0
6915 1 1 0 96.33022332095113 8.89117481641121 -1.625838948370432 0 0 0
9778 1 2 0 97.00271185062944 7.402930801087743 -2.080796488422711 0 0 0
6589 1 1 0 7.7908225939559905 9.09385809358722 -1.6115995168895787 0 0 0
9271 1 2 0 7.903167977116945 10.7109369861634 -1.923617336938412 0 0 0
6808 1 1 0 13.51424434146233 9.982144653009708 -1.5957292237616723 0 0 0
9603 1 2 0 15.103633433226799 9.918375067348451 -2.118709972269593 0 0 0
9602 1 2 0 12.921382999610055 11.472807251847556 -1.8968800276428672 0 0 0
6814 1 1 0 16.707500794473816 10.08403024783965 -1.6570065491707913 0 0 0
6817 1 1 0 23.44850765511921 10.237534849939243 -1.6197877882997824 0 0 0
9618 1 2 0 24.97792390462711 9.921288154397685 -2.021472800729754 0 0 0
6825 1 1 0 26.507659738818145 10.205490773741358 -1.624725558353925 0 0 0
9635 1 2 0 32.27485394906137 10.368088257100247 -2.1539696706540696 0 0 0
6836 1 1 0 38.081568934917534 11.085278479420746 -1.5943251790543527 0 0 0
9647 1 2 0 37.97102341097452 9.556912516819873 -2.0985393589357284 0 0 0
6843 1 1 0 43.6932044271724 11.36904468645393 -1.6514127989731862 0 0 0
9659 1 2 0 44.093196478358664 9.857729083436517 -2.135396275429725 0 0 0
9671 1 2 0 49.29218865067732 10.00280437640427 -2.0635921582507164 0 0 0
6859 1 1 0 56.16373800443914 10.24721707710668 -1.6418658715088659 0 0 0
9689 1 2 0 57.83441743079137 10.08170339589775 -2.0278642075719744 0 0 0
6863 1 1 0 59.49612121064141 9.974441802211922 -1.628416465488087 0 0 0
9695 1 2 0 60.453323326821746 11.209056397413052 -2.164033982739086 0 0 0
9715 1 2 0 68.26369490970178 10.285084297403712 -1.9488331634927256 0 0 0
9727 1 2 0 72.65080557448029 9.217201218217255 -1.907137470830975 0 0 0
6884 1 1 0 74.11500034220913 9.948254468199275 -1.6131083323638638 0 0 0
9730 1 2 0 75.50118118374576 9.173554064640928 -2.119200602553743 0 0 0
6895 1 1 0 79.88196743708438 9.379587165779219 -1.6276992682320834 0 0 0
9748 1 2 0 79.95190516931557 10.950445507733619 -2.0508170209569903 0 0 0
9749 1 2 0 85.9202393108437 10.279858477493791 -2.181339552570796 0 0 0
9769 1 2 0 92.82263347536802 11.305232627080827 -2.076007380763908 0 0 0
6908 1 1 0 93.26647703987221 9.785736183630442 -1.6201292035005226 0 0 0
9770 1 2 0 94.74527647267475 9.17169939661433 -2.01739665690377 0 0 0
9781 1 2 0 96.97553500360338 10.341218271743855 -2.1450505541680527 0 0 0
9077 1 2 0 101.27229129146419 11.298228749169532 -2.176510946935004 0 0 0
9273 1 2 0 7.841346264158337 13.428099155795442 -2.1471852219038454 0 0 0
6591 1 1 0 8.686746918937741 12.124999967196873 -1.6171837301143999 0 0 0
9275 1 2 0 10.254250615820764 12.195132566731752 -2.105247714131707 0 0 0
6809 1 1 0 11.767333367938505 12.584013839579272 -1.601021929841861 0 0 0
9613 1 2 0 17.417702562335975 11.529117544666274 -2.097620084979904 0 0 0
6818 1 1 0 17.897389391579686 13.045534755182727 -1.607816157407822 0 0 0
6819 1 1 0 23.104468696336262 13.275429084703202 -1.6550176727576162 0 0 0
9617 1 2 0 23.132138415847912 11.734567320148479 -2.144633939153659 0 0 0
9632 1 2 0 27.158246958749093 11.572170752568388 -2.182392062394352 0 0 0
6830 1 1 0 27.907594969215626 12.870167890372537 -1.595921940608106 0 0 0
9639 1 2 0 29.39930428136495 13.185876729606644 -2.1029190062796155 0 0 0
9637 1 2 0 31.983003116236794 13.005926483596054 -2.101542682635704 0 0 0
6829 1 1 0 32.91242573150204 11.773153715166565 -1.6375831561633385 0 0 0
9638 1 2 0 34.371368378796724 12.24786936297599 -2.172558190866958 0 0 0
6838 1 1 0 35.70419511783881 13.009242098840337 -1.631380160606211 0 0 0
9650 1 2 0 36.97428866844866 12.13323192602683 -2.1347620926506226 0 0 0
9651 1 2 0 39.60942781386561 11.50594489828534 -1.9202101831115332 0 0 0
6844 1 1 0 40.81193343733064 12.541860455778032 -1.6065884052152655 0 0 0
9661 1 2 0 42.24069332468658 11.95065751055295 -2.1597222014684165 0 0 0
6851 1 1 0 46.17001896388427 13.242065928438858 -1.6219154759581482 0 0 0
9662 1 2 0 44.921248963251834 12.319823553081802 -2.144957376418652 0 0 0
9673 1 2 0 47.61970476838751 12.481010831420576 -2.0326000946758542 0 0 0
6850 1 1 0 49.073530369015714 11.703714280496456 -1.6308401124043914 0 0 0
9674 1 2 0 50.21949895197439 12.914136775558593 -2.017304399201245 0 0 0
9691 1 2 0 52.838415402944776 13.630191094063377 -2.074251850957679 0 0 0
6861 1 1 0 54.43930731730161 13.17528488989092 -1.6161797204736605 0 0 0
9688 1 2 0 55.30091570747826 11.718201544121316 -2.0627965853276655 0 0 0
9702 1 2 0 60.37996981594546 13.608020904709713 -2.107479800879434 0 0 0
6868 1 1 0 61.442896181726 12.415168123520804 -1.644049019057877 0 0 0
9703 1 2 0 63.0502643657147 12.331659089739045 -2.1167857800729393 0 0 0
6878 1 1 0 64.6405007714379 12.56937999540295 -1.6148381483976901 0 0 0
9717 1 2 0 66.14425301900106 11.999429977626331 -2.100340441544244 0 0 0
6877 1 1 0 67.7360078062495 11.807498993970556 -1.6150737036037723 0 0 0
9718 1 2 0 68.9521780988129 12.83763320029416 -2.1280126968670166 0 0 0
6885 1 1 0 70.31222503596746 13.673559725718889 -1.6309318420255707 0 0 0
9731 1 2 0 71.7908724758918 13.057946338934252 -2.00378418290129 0 0 0
6886 1 1 0 73.39171478727464 12.987731411844372 -1.6259758498181098 0 0 0
9729 1 2 0 73.97143264290642 11.518684201463369 -2.108041734447997 0 0 0
9754 1 2 0 79.2350066025958 13.600097343212775 -2.130156313485132 0 0 0
6898 1 1 0 80.30639872262248 12.474797090806828 -1.626280081939282 0 0 0
9753 1 2 0 81.82252354109646 12.745931550249386 -2.154628341219345 0 0 0
6899 1 1 0 83.3176432938686 13.01552681066186 -1.5920819785977547 0 0 0
9751 1 2 0 84.66961690062664 12.304962212915042 -2.142205852977624 0 0 0
6897 1 1 0 86.12643291789986 11.781686804167611 -1.645313407069186 0 0 0
9752 1 2 0 87.50409110486129 12.468877846199634 -2.171461852503172 0 0 0
6909 1 1 0 88.88433706896484 13.134127660314626 -1.6063068649583538 0 0 0
6910 1 1 0 91.89924407568687 12.590888702015457 -1.6307283478122698 0 0 0
9771 1 2 0 90.33009708154279 12.565567045237882 -2.103670972639486 0 0 0
9784 1 2 0 96.68202875283066 13.237163633217827 -2.032431595613967 0 0 0
6918 1 1 0 97.45852880353898 11.841294427658982 -1.6193408750182972 0 0 0
9235 1 2 0 98.97454238935079 12.16850904359965 -2.094055006699683 0 0 0
6565 1 1 0 100.46343269519966 12.620087388365908 -1.6236207630770367 0 0 0
6590 1 1 0 6.7311048766567785 14.509651277703414 -1.624076841944332 0 0 0
9274 1 2 0 6.7523510133319204 16.066420308855463 -2.1466182679833223 0 0 0
9604 1 2 0 12.379280678128351 13.987913505806992 -2.166869203786395 0 0 0
6928 1 1 0 13.070373918085329 15.37262231420587 -1.6508117397489361 0 0 0
9799 1 2 0 14.61128254892658 15.619285711370436 -2.1457199802361413 0 0 0
6929 1 1 0 16.169481005266064 15.639222915189357 -1.6404752177039081 0 0 0
9620 1 2 0 16.804542215616404 14.186204580954778 -2.033932746406448 0 0 0
9619 1 2 0 19.22250902329135 13.897330653173503 -2.1273570502428103 0 0 0
6820 1 1 0 20.494508311269193 14.826882708511366 -1.6331075393101544 0 0 0
9621 1 2 0 21.766019950043116 13.99455738582142 -2.18387408060129 0 0 0
9622 1 2 0 24.355771151173208 14.1667508268883 -2.169702684341978 0 0 0
6932 1 1 0 25.642644820541186 14.945364593532306 -1.5855921914716875 0 0 0
9640 1 2 0 26.97694882692768 14.122287108222995 -1.9480948346461133 0 0 0
6831 1 1 0 30.754071585341237 13.917780604618411 -1.6270703569868255 0 0 0
9641 1 2 0 30.75836707392404 15.450888226503057 -2.1327055535328476 0 0 0
6936 1 1 0 36.57756486305818 15.991827186818899 -1.6244759322257973 0 0 0
9653 1 2 0 35.83519156299528 14.588563676991662 -2.0187994551280215 0 0 0
9809 1 2 0 38.156372318943596 15.852594675652993 -2.069461990808825 0 0 0
6935 1 1 0 39.683002519175545 15.431412173244357 -1.6336095977330503 0 0 0
9663 1 2 0 40.245138127551876 13.979840081022894 -2.149611053067408 0 0 0
9675 1 2 0 45.659561676791014 14.780532334999307 -2.0738111977918563 0 0 0
6942 1 1 0 44.976141813304125 16.254329973486595 -1.6394077309003956 0 0 0
9693 1 2 0 50.74810504122556 15.84718622635654 -2.029019788762022 0 0 0
6862 1 1 0 51.27012991358445 14.20755487829337 -1.6357781915897054 0 0 0
9692 1 2 0 55.266876814695195 14.593942149535948 -1.9591427906512862 0 0 0
6870 1 1 0 56.30413485382395 15.857438182006826 -1.6158303236184797 0 0 0
9704 1 2 0 57.7932524403844 15.279977766593255 -2.1215224446348686 0 0 0
6869 1 1 0 59.28398828193517 14.75328054889349 -1.5903616925563917 0 0 0
9705 1 2 0 60.3119118144571 15.945187550376312 -1.9846568919509615 0 0 0
9828 1 2 0 63.071219100499135 16.087661520754256 -2.143137693853226 0 0 0
6947 1 1 0 64.5488790333036 15.657753569960322 -1.6322070122081962 0 0 0
9719 1 2 0 64.84744693720299 14.126348646312113 -2.034598844981755 0 0 0
9732 1 2 0 70.39186467298988 15.247736753733065 -2.101415118463466 0 0 0
9733 1 2 0 74.25957667527696 14.311403939544967 -2.105906842647929 0 0 0
6951 1 1 0 75.38593233305023 15.421982874542058 -1.6314637906081475 0 0 0
9834 1 2 0 76.88619106308246 14.985325818422512 -2.1192710726782997 0 0 0
6952 1 1 0 78.4470665923637 14.947590022868154 -1.649862383704612 0 0 0
9755 1 2 0 83.85463661642521 14.479128052304992 -1.9981095660227592 0 0 0
6955 1 1 0 84.9000926537919 15.641412568464672 -1.6181832686317423 0 0 0
9840 1 2 0 86.4251982814456 15.65753489652662 -2.1473946762818645 0 0 0
9772 1 2 0 88.83143047613513 14.740189519231391 -1.8586433462579615 0 0 0
6956 1 1 0 87.90622030590538 16.047018358456285 -1.6055157942552072 0 0 0
6959 1 1 0 93.29094394543176 15.398372938846299 -1.6200551185895857 0 0 0
9773 1 2 0 92.44158320018798 14.074333216544414 -2.0642772987287428 0 0 0
6960 1 1 0 96.29649301810728 14.788054452408822 -1.6239508298830956 0 0 0
9846 1 2 0 94.79853544833409 15.122205603170416 -2.168839141751669 0 0 0
9848 1 2 0 97.18486212773253 16.089963765231307 -2.095045232605153 0 0 0
6566 1 1 0 100.80422531852665 15.73977853286693 -1.6250947350837852 0 0 0
9234 1 2 0 100.75493977031138 14.166323462671823 -2.1189500886719688 0 0 0
6636 1 1 0 6.620095539642589 17.61747372686765 -1.6388049686182398 0 0 0
9344 1 2 0 7.782867107455167 18.600758641169126 -2.187747373294003 0 0 0
6963 1 1 0 11.548590938717792 18.033499880205962 -1.6098773886633326 0 0 0
9800 1 2 0 12.114117057374216 16.60226764332193 -2.1180736679084062 0 0 0
9801 1 2 0 17.047316318387622 16.948879190703916 -2.123334474324526 0 0 0
6964 1 1 0 17.825789469504834 18.317265025243692 -1.626957900670852 0 0 0
9853 1 2 0 19.407495642777036 18.427972526147528 -2.0155632122607128 0 0 0
6965 1 1 0 20.922698307496354 17.959427777500736 -1.6247183931730889 0 0 0
9623 1 2 0 20.810559929940958 16.379922647909865 -2.090304923216398 0 0 0
9805 1 2 0 26.193299646200618 16.3736017532041 -2.095971666400799 0 0 0
6969 1 1 0 27.27335605824326 17.491117189303555 -1.6519404181926658 0 0 0
9859 1 2 0 28.800803641292585 17.243618779877874 -2.1644709552370567 0 0 0
6968 1 1 0 30.313542594983193 16.92463503613886 -1.6418667659747437 0 0 0
9860 1 2 0 31.445927436062135 18.001613807649164 -2.05703407417881 0 0 0
9811 1 2 0 35.78137475907895 17.35344994994804 -2.135218168341721 0 0 0
9810 1 2 0 40.788328904018385 16.51214884168743 -2.1457351089951255 0 0 0
6943 1 1 0 41.99354060799912 17.492157408982113 -1.6416987831483056 0 0 0
9820 1 2 0 43.44662929414314 16.782130850604716 -2.068683441948038 0 0 0
9821 1 2 0 45.98112646419081 17.45118903595863 -2.152452318870401 0 0 0
9868 1 2 0 48.560089962385206 17.794613166691676 -1.9829972303810268 0 0 0
6975 1 1 0 47.109656039043294 18.51825322781695 -1.6116708402490465 0 0 0
6974 1 1 0 50.155664393341375 17.457675930000068 -1.6077539349203698 0 0 0
9706 1 2 0 55.78042810101972 17.413476687418733 -2.0671829547391973 0 0 0
6948 1 1 0 61.677552205092056 16.71291071602082 -1.6084939890426637 0 0 0
9830 1 2 0 61.44915695474987 18.196423830599883 -2.1833521626115147 0 0 0
6950 1 1 0 67.01948107343205 17.453158172778647 -1.6312263128123612 0 0 0
9829 1 2 0 65.74472767921128 16.61225372748716 -2.1728764147466846 0 0 0
9831 1 2 0 68.44157558072081 16.840000642515133 -2.059877869156999 0 0 0
6949 1 1 0 69.9983398048164 16.77070623658304 -1.6346491608091733 0 0 0
9832 1 2 0 70.7861017400778 18.13149158283648 -2.12715796354718 0 0 0
9835 1 2 0 75.16343143840598 16.990492612524328 -2.0817920153256333 0 0 0
6987 1 1 0 74.77747900032256 18.522280908740964 -1.6289191881940657 0 0 0
9836 1 2 0 79.21287638886852 16.289780728848474 -2.182650693721585 0 0 0
6993 1 1 0 80.05970133521168 17.561738168077163 -1.6233971708122419 0 0 0
9897 1 2 0 81.59383179559909 17.59977804202066 -2.1246619804409255 0 0 0
6994 1 1 0 83.073855137652 18.005959756772125 -1.6402262168344213 0 0 0
9841 1 2 0 84.11930113066907 16.921035241095524 -2.1783172943458085 0 0 0
9842 1 2 0 88.45681764102372 17.4858230955428 -2.142311797138516 0 0 0
9847 1 2 0 92.7319202205371 16.86541121596688 -2.093433758625121 0 0 0
6996 1 1 0 92.2798660413108 18.375650886997718 -1.6335007083322617 0 0 0
7002 1 1 0 98.11810701904902 17.36501394021764 -1.625517786180087 0 0 0
9236 1 2 0 99.56975403099445 16.73293448965849 -2.0485793056738375 0 0 0
9406 1 2 0 10.20187022656506 18.766099045771607 -2.15213579419416 0 0 0
6676 1 1 0 8.912055095980865 19.627118851097478 -1.6491647143039556 0 0 0
9852 1 2 0 12.576076265950281 19.18720402344014 -2.0771177746136993 0 0 0
7008 1 1 0 13.23494617366261 20.571080988524933 -1.5896205584568361 0 0 0
9920 1 2 0 14.796100435102248 20.39821874349159 -1.8962713067572847 0 0 0
9854 1 2 0 17.183709986695426 19.731043492508515 -2.1458506521858753 0 0 0
7009 1 1 0 16.269071530786235 20.96199329713393 -1.5870086967236248 0 0 0
9855 1 2 0 22.15035009480061 18.975058557931156 -2.127807158607027 0 0 0
7011 1 1 0 23.029770028953212 20.320818238440797 -1.6569970875714894 0 0 0
9923 1 2 0 24.641733685470502 20.53357458743231 -2.08990810732676 0 0 0
7012 1 1 0 26.25284622494226 20.352490088630315 -1.629140253641015 0 0 0
9861 1 2 0 26.661652612308426 18.882316064613246 -2.1795408804561247 0 0 0
9925 1 2 0 27.7771516565136 20.964503346752966 -2.0354400774105255 0 0 0
9864 1 2 0 30.771742508167307 20.326444818931193 -2.113601702159784 0 0 0
6971 1 1 0 32.10759427142821 19.4251183680415 -1.6200091979326483 0 0 0
9862 1 2 0 33.708302826175114 19.32034158563097 -2.1135826013215078 0 0 0
6970 1 1 0 35.23864239083372 18.84094676789692 -1.629174688982603 0 0 0
9863 1 2 0 36.45150613561198 19.89855420697069 -2.008585968923188 0 0 0
9932 1 2 0 39.09183883318397 20.797679781022214 -2.069347229021988 0 0 0
7017 1 1 0 40.67492664877994 20.394226200779073 -1.6130298414614201 0 0 0
9822 1 2 0 41.4294665916152 18.988827338792973 -2.128143263459689 0 0 0
9870 1 2 0 46.76571044117828 20.09422413610655 -2.0453396276222056 0 0 0
9869 1 2 0 50.54103063132197 19.079731544593876 -2.073196828408469 0 0 0
6981 1 1 0 50.7165467157551 20.727161528482977 -1.6306135868671232 0 0 0
9877 1 2 0 54.67156154654408 20.37963948460355 -2.1092240988069615 0 0 0
6980 1 1 0 55.62278659776703 19.05179633504031 -1.6114081347465599 0 0 0
9878 1 2 0 57.07704792240703 19.679231870069447 -2.0106705296340963 0 0 0
6986 1 1 0 58.266744320422305 20.70085634128367 -1.6183644757394469 0 0 0
9885 1 2 0 59.68643749615819 20.153172065957538 -2.155093556720732 0 0 0
6985 1 1 0 61.13855698134559 19.68081262452082 -1.652715727800992 0 0 0
9886 1 2 0 62.35424975342059 20.59489912249062 -2.1803682414629835 0 0 0
9958 1 2 0 65.09936158572708 20.574746321335184 -2.1075004280677936 0 0 0
7034 1 1 0 66.63654173041284 20.449902476967797 -1.6405686500337393 0 0 0
9833 1 2 0 67.04950353406504 18.980290754215776 -2.1495012214490377 0 0 0
6988 1 1 0 71.81357307738635 19.32600578740653 -1.6380089772145996 0 0 0
9890 1 2 0 71.64080321430257 20.90241914967481 -2.0896551500833804 0 0 0
9888 1 2 0 73.28017178646199 18.860409416137966 -2.166289389711865 0 0 0
9889 1 2 0 75.69841670087911 19.794070918737763 -2.117193954292757 0 0 0
7035 1 1 0 79.51163549117145 20.60356089385978 -1.6292073781717922 0 0 0
9898 1 2 0 79.54254827085308 19.035218566914992 -2.0453188971779253 0 0 0
9961 1 2 0 78.0473822568735 21.053005531569962 -2.156977309511813 0 0 0
9899 1 2 0 83.6550246266091 19.414128487465195 -2.147448513875055 0 0 0
7041 1 1 0 84.43686632996764 20.70655153182946 -1.5937201571485133 0 0 0
9968 1 2 0 85.95352578198043 20.87532230782656 -2.11348440050662 0 0 0
6995 1 1 0 89.22438972215748 18.846095620956604 -1.649981801478655 0 0 0
9901 1 2 0 88.51235136230919 20.25341054460967 -2.1018041156053884 0 0 0
9900 1 2 0 90.7685094498797 18.707289502818234 -2.1603891719399564 0 0 0
9902 1 2 0 93.26156715135451 19.598469813685067 -2.111712141732638 0 0 0
7043 1 1 0 94.07409618880884 20.93973231577904 -1.6223954026640517 0 0 0
9971 1 2 0 95.65390064426272 20.727576557899948 -2.029489228923974 0 0 0
7044 1 1 0 97.22125662806792 20.41349747264083 -1.6267274477352363 0 0 0
9911 1 2 0 97.71731081721006 18.901278624557367 -2.147834055721661 0 0 0
6675 1 1 0 8.829034239567946 22.733696485820932 -1.615483732295623 0 0 0
9404 1 2 0 8.70100113055833 21.178678799855366 -2.134243518371964 0 0 0
9405 1 2 0 10.318292689080312 23.188481377948115 -2.0701089699711903 0 0 0
9468 1 2 0 12.640950672932753 21.974607692479708 -2.1550495574445874 0 0 0
6717 1 1 0 11.85825758672331 23.29453362479009 -1.6047047464698456 0 0 0
9921 1 2 0 16.186558364865945 22.49847463610116 -2.1344971463560336 0 0 0
9924 1 2 0 22.12263232307398 21.63391216858716 -2.0836628120840537 0 0 0
7048 1 1 0 21.735182689183297 23.16186897121558 -1.6052467241133552 0 0 0
7052 1 1 0 29.401176128755495 21.18023324661241 -1.6414763016259342 0 0 0
9984 1 2 0 29.80050706115929 22.678829905881003 -2.159096115807261 0 0 0
9934 1 2 0 36.66849061493617 22.50421869484158 -2.117715228526813 0 0 0
7018 1 1 0 37.49019166169731 21.12570766567043 -1.617655238659329 0 0 0
9933 1 2 0 41.81479844785265 21.537029191903322 -1.9899373163996479 0 0 0
7029 1 1 0 43.11025059252531 22.50119777533004 -1.6191901731495244 0 0 0
7028 1 1 0 46.183038179641244 21.605038372548737 -1.6197371293289664 0 0 0
9950 1 2 0 44.621963241493695 21.979865221708238 -2.125333704188525 0 0 0
9951 1 2 0 47.29403122174061 22.80524914764339 -1.9362767915936951 0 0 0
9880 1 2 0 49.7565163837123 22.08264137325072 -2.030345330332936 0 0 0
7063 1 1 0 48.8017266729201 23.44761822334116 -1.611910904875137 0 0 0
9879 1 2 0 52.22256213741075 21.192399409830013 -2.105309162531859 0 0 0
6982 1 1 0 53.712385195250434 21.709519066393863 -1.6319420993991332 0 0 0
9881 1 2 0 53.7645619543713 23.364214702473504 -2.065878821158047 0 0 0
9887 1 2 0 58.16389006751733 22.231283938504134 -2.1511828858897846 0 0 0
7033 1 1 0 63.71899185194483 21.23994556858987 -1.6284733420635507 0 0 0
9959 1 2 0 63.914700032912286 22.749709651476127 -2.1296660164698107 0 0 0
9960 1 2 0 67.55375703553041 21.684711197391007 -2.140567975004518 0 0 0
7070 1 1 0 68.40450960244851 22.976967583048342 -1.647919053644753 0 0 0
10010 1 2 0 69.93206770691982 22.84230542367374 -2.1683392607621848 0 0 0
7071 1 1 0 71.42414054762597 22.474217520154447 -1.6353685820569694 0 0 0
9963 1 2 0 76.03249844969493 22.641582986679623 -2.004398148236098 0 0 0
7036 1 1 0 76.51586619826386 21.130026737486258 -1.624210285048756 0 0 0
9962 1 2 0 80.75575306894704 21.521884191731147 -2.1468435960720793 0 0 0
7072 1 1 0 81.95461761462049 22.48356658731187 -1.5976798275149546 0 0 0
9969 1 2 0 83.43776035886886 21.926056931162197 -1.9039234720047702 0 0 0
7042 1 1 0 87.41697505331551 21.380962396098553 -1.6285384512821088 0 0 0
9970 1 2 0 87.3777772565866 22.94371591770237 -2.1341803644206108 0 0 0
9972 1 2 0 93.4114716278596 22.374294978358346 -2.134443672655248 0 0 0
9973 1 2 0 98.07957153606776 21.751074911552845 -2.1146094327530878 0 0 0
7082 1 1 0 98.92546893771359 23.091805130334162 -1.6286251499115778 0 0 0
9374 1 2 0 100.46946549182698 23.053638973031294 -2.1686240009264597 0 0 0
9400 1 2 0 5.863889026099949 25.33909794349 -2.096821218750147 0 0 0
6674 1 1 0 7.4346969656863315 25.51615022704521 -1.6316406918567063 0 0 0
9402 1 2 0 8.014125438374581 24.058111444771534 -2.1470311317838267 0 0 0
9467 1 2 0 12.484577564953637 24.749181755478112 -1.964344361619033 0 0 0
9469 1 2 0 15.010324252467488 25.10071588202276 -2.124510907196049 0 0 0
6718 1 1 0 13.627699570580749 25.861909876728646 -1.6144614061209746 0 0 0
7047 1 1 0 16.203246993574624 24.063668105564716 -1.6486932316165157 0 0 0
7049 1 1 0 19.14536107492212 24.951139949144252 -1.6199658003406607 0 0 0
9977 1 2 0 17.694424368037385 24.455888980752395 -2.17375287330268 0 0 0
9978 1 2 0 20.438703043463583 24.053093820838384 -2.132838561372803 0 0 0
9979 1 2 0 23.138618999714552 23.927371693419996 -1.9264417471010762 0 0 0
7091 1 1 0 24.009869284366918 25.259897580568143 -1.6083977097215498 0 0 0
10041 1 2 0 25.586777501438608 25.23334394574719 -2.1404455798273765 0 0 0
7092 1 1 0 27.142140249967373 25.536809798010186 -1.614007130312232 0 0 0
9991 1 2 0 28.60477467190174 24.913928768311575 -2.1103870834280434 0 0 0
7056 1 1 0 30.038172165346538 24.209217139671235 -1.6376071836255977 0 0 0
9990 1 2 0 31.55925276004347 24.734580554836526 -2.0885692646815213 0 0 0
7058 1 1 0 33.06475696673486 25.316388132145324 -1.6143943969804109 0 0 0
9992 1 2 0 34.53454885170238 24.580319084447122 -2.076315555043319 0 0 0
7057 1 1 0 36.08026946508333 24.008069770474425 -1.6518011348939976 0 0 0
9993 1 2 0 37.39119753866572 24.908580073006675 -2.137415925005843 0 0 0
7094 1 1 0 38.685949472089966 25.809836374703444 -1.62976209029076 0 0 0
10045 1 2 0 40.24941675248765 25.405647557234673 -2.020582692267348 0 0 0
9952 1 2 0 42.63091948821941 24.009334023848552 -2.109823956417196 0 0 0
7095 1 1 0 41.86884783682833 25.398946806572308 -1.6338993418373353 0 0 0
10000 1 2 0 48.977372530613884 25.128536228141716 -2.0623474387480134 0 0 0
7065 1 1 0 53.80279814347793 25.01380656364909 -1.619170069239657 0 0 0
10003 1 2 0 55.174836076183176 25.73905912170883 -2.1540409299867886 0 0 0
10001 1 2 0 57.478941853182484 24.85782250304811 -2.087726277842425 0 0 0
7064 1 1 0 58.518866512629465 23.722718731923866 -1.6236478766886355 0 0 0
10002 1 2 0 59.971181907892145 24.266040606406786 -2.070999963343477 0 0 0
7068 1 1 0 61.13391663134029 25.28747549012867 -1.628442122143296 0 0 0
10006 1 2 0 62.575425075377154 24.859627613535 -2.189194389405265 0 0 0
7067 1 1 0 63.94994460358889 24.26550858585269 -1.6155150587317941 0 0 0
10007 1 2 0 65.24779898943228 25.092527125042608 -2.0628699987476264 0 0 0
10011 1 2 0 67.7404342758009 24.375480352068976 -2.1347582719542038 0 0 0
7100 1 1 0 66.7334638123112 25.541186509042756 -1.6257137666509371 0 0 0
10012 1 2 0 72.42818778113518 23.692587117506775 -2.125437055707897 0 0 0
7103 1 1 0 73.20027025362477 25.077252243212957 -1.6292487382861551 0 0 0
10056 1 2 0 74.78887769615305 24.955789163719047 -2.0490505084611628 0 0 0
7102 1 1 0 76.20433470429221 24.225353070869314 -1.6197580860773095 0 0 0
10057 1 2 0 77.65983530972021 24.883907227414877 -2.061259119364104 0 0 0
10013 1 2 0 81.99190876514444 24.007062342323337 -2.1279083141332347 0 0 0
10059 1 2 0 80.41652176597574 25.85025587860312 -2.127022282946113 0 0 0
7104 1 1 0 81.96424381864236 25.5511014853348 -1.625475733748444 0 0 0
10023 1 2 0 86.02986610346487 25.459765974894115 -2.0685070204414475 0 0 0
7078 1 1 0 87.31515800466455 24.509960919586263 -1.6334898649940361 0 0 0
10022 1 2 0 88.77444095642764 25.025718686593333 -2.1691540996667236 0 0 0
10024 1 2 0 91.51731322262579 24.548591561453623 -2.1110238967571284 0 0 0