
15864 atoms
0 bonds
0 angles
0 dihedrals
0 impropers

2 atom types
0 bond types
0 angle types
0 dihedral types
0 improper types

0 205.75894413882543 xlo xhi
0 179.299671578184 ylo yhi
-100 100 zlo zhi

Atoms

1 1 1 0 176.38609638004462 171.35996466334947 1.65
2 1 1 0 175.52512954530033 168.32728240228556 1.65
3 1 1 0 174.5938176541934 173.94069045965207 1.65
4 1 1 0 171.79418566744542 174.23921137836055 1.65
5 1 1 0 169.87167596878487 171.61556525191412 1.65
6 1 1 0 171.81034112078856 168.28436207214173 1.65
7 1 1 0 179.5761926058629 172.1051605123375 1.65
8 1 1 0 178.9658668411773 166.94513087633777 1.65
9 1 1 0 181.63352002812832 169.813680489288 1.65
10 1 1 0 176.21177368602915 176.81569485233132 1.65
11 1 1 0 179.33517369449234 175.76127007304854 1.65
12 1 1 0 170.93507819986178 177.45979071560188 1.65
13 1 1 0 168.11756625457008 178.1792090236193 1.65
14 1 1 0 165.8378236256801 175.6478398560038 1.65
15 1 1 0 166.73282587231128 172.30477542153994 1.65
16 1 1 0 173.96925634483395 179.1269456924709 1.65
17 1 1 0 167.10724048819344 1.9361180417535602 1.65
18 1 1 0 168.51401008131293 5.147675160892333 1.65
19 1 1 0 174.3309848204393 2.6131426051883295 1.65
20 1 1 0 171.36898265378642 5.468734267936109 1.65
21 1 1 0 196.60109193590168 28.36812463940949 1.65
22 1 1 0 198.7082538047115 25.82768748098661 1.65
23 1 1 0 193.53739256232905 28.10166672256112 1.65
24 1 1 0 195.71345622404218 20.911677640317855 1.65
25 1 1 0 198.11809334896185 22.227241445137288 1.65
26 1 1 0 192.56719952464593 22.89930258343951 1.65
27 1 1 0 191.8217124900793 25.69697726119504 1.65
28 1 1 0 198.09398280627207 31.38010392748785 1.65
29 1 1 0 202.34659751082717 26.04840859754921 1.65
30 1 1 0 203.93954341880448 28.83965247327769 1.65
31 1 1 0 201.79409058305922 31.630910644793456 1.65
32 1 1 0 190.42309819579782 29.70068925103862 1.65
33 1 1 0 189.92548485143115 31.861175145988753 1.65
34 1 1 0 192.79932443588004 34.17412459966646 1.65
35 1 1 0 196.21030258260967 34.09192809534763 1.65
36 1 1 0 107.11255067347432 6.590373565019638 1.65
37 1 1 0 106.61324434793421 3.400963153066413 1.65
38 1 1 0 105.00406639835006 8.741121294678283 1.65
39 1 1 0 102.21921154430491 8.78863078009507 1.65
40 1 1 0 100.45652373433464 5.975338877544714 1.65
41 1 1 0 100.68047206849525 2.0887716411947843 1.65
42 1 1 0 103.29323678941363 0.9025706630424066 1.65
43 1 1 0 112.82695168477856 4.27807077293426 1.65
44 1 1 0 109.44216918204489 1.9985287992256842 1.65
45 1 1 0 113.11072832229732 7.704445191997943 1.65
46 1 1 0 110.22525214510375 8.614313630242597 1.65
47 1 1 0 115.1764918934577 2.9723248031622718 1.65
48 1 1 0 115.14245857842529 178.8383992918647 1.65
49 1 1 0 109.62648059865951 178.06094000492178 1.65
50 1 1 0 112.9772297863608 176.9068848891488 1.65
51 1 1 0 118.28129975498757 3.83563436519736 1.65
52 1 1 0 119.90778382363568 6.252415904992151 1.65
53 1 1 0 118.99774022863627 9.285790634635532 1.65
54 1 1 0 116.03485618992514 10.086387190370381 1.65
55 1 1 0 120.24260349121155 0.7405346403094887 1.65
56 1 1 0 118.50077385210945 177.68883868294736 1.65
57 1 1 0 124.53448915293444 3.2521416075341496 1.65
58 1 1 0 123.27260078559318 6.03991836398764 1.65
59 1 1 0 123.13097592720092 0.3695394236507825 1.65
60 1 1 0 127.29111826609162 2.7342834215068454 1.65
61 1 1 0 129.2989127642122 5.155750111504985 1.65
62 1 1 0 128.33182024097454 8.424647282370769 1.65
63 1 1 0 125.0621373755127 8.790957348826119 1.65
64 1 1 0 125.88760504035808 179.15135281580746 1.65
65 1 1 0 132.2697634737018 4.056527835911286 1.65
66 1 1 0 134.99744258725946 6.343454344165698 1.65
67 1 1 0 134.19776346518424 9.690574157357354 1.65
68 1 1 0 130.50299182838893 10.672544819968724 1.65
69 1 1 0 132.5796138702308 0.7655261986161364 1.65
70 1 1 0 126.79848593161157 177.87913794745612 1.65
71 1 1 0 130.26636459614812 177.9971647159518 1.65
72 1 1 0 137.9878119917359 5.25658531222976 1.65
73 1 1 0 138.48293250162436 2.253922877754191 1.65
74 1 1 0 134.97503801277733 177.79292843555402 1.65
75 1 1 0 137.2330806726898 178.4541777257623 1.65
76 1 1 0 143.51533160036928 3.7449793269037315 1.65
77 1 1 0 146.5110090691353 3.1307212199735637 1.65
78 1 1 0 141.25196319113175 6.398268355158779 1.65
79 1 1 0 148.55304182234633 5.563834386893799 1.65
80 1 1 0 146.53793376081714 8.413875667235269 1.65
81 1 1 0 142.23253259836858 8.634051528570081 1.65
82 1 1 0 141.6027377901993 1.599192434389041 1.65
83 1 1 0 147.54727752397335 179.28027945736028 1.65
84 1 1 0 145.26307203607774 177.0449583469681 1.65
85 1 1 0 142.31420977106973 178.04928479525066 1.65
86 1 1 0 151.9211691012078 4.545116204899575 1.65
87 1 1 0 152.82680253867218 1.1250007847234191 1.65
88 1 1 0 150.49494371464877 178.29327720410436 1.65
89 1 1 0 154.3625212016752 6.544416030061805 1.65
90 1 1 0 153.85288591339383 9.966726432178692 1.65
91 1 1 0 147.60654386839255 10.79913473422997 1.65
92 1 1 0 150.97458391387082 11.56984735830511 1.65
93 1 1 0 157.68262648358902 5.0974748298314765 1.65
94 1 1 0 158.47105648577303 1.5205658141778808 1.65
95 1 1 0 156.05658464132358 178.84706317241606 1.65
96 1 1 0 160.21669874310084 7.154633088605312 1.65
97 1 1 0 159.71870017236805 10.550845403175824 1.65
98 1 1 0 156.67499262457488 11.915997546518875 1.65
99 1 1 0 163.85283455011384 2.6427060630633488 1.65
100 1 1 0 163.17454428645655 5.899516081710094 1.65
101 1 1 0 161.6834190089421 0.3209140543049722 1.65
102 1 1 0 165.94401155730264 7.702944778585998 1.65
103 1 1 0 162.65808231813176 176.38262844356368 1.65
104 1 1 0 176.95920309019166 4.358031625779145 1.65
105 1 1 0 178.14657294113564 7.275569314076114 1.65
106 1 1 0 172.8462748036183 8.569902969782174 1.65
107 1 1 0 176.99564682121516 8.631848995331362 1.65
108 1 1 0 179.79401843830726 3.9525597885504844 1.65
109 1 1 0 181.81116045831567 1.7642320183874554 1.65
110 1 1 0 181.73801664305793 177.62908216361592 1.65
111 1 1 0 180.98138828925124 6.870097476847453 1.65
112 1 1 0 183.99921358804926 6.995234613240932 1.65
113 1 1 0 184.98014052744668 3.97983311993384 1.65
114 1 1 0 190.26737835744754 5.612410099106787 1.65
115 1 1 0 187.3215999637772 3.1442128825657916 1.65
116 1 1 0 185.04781447385844 9.794709497317509 1.65
117 1 1 0 191.37186858715478 9.363094454171716 1.65
118 1 1 0 188.95167829819246 11.097248815981745 1.65
119 1 1 0 193.0620478254284 4.056627241712024 1.65
120 1 1 0 192.95092881388499 0.6077883777999156 1.65
121 1 1 0 187.43201832044863 178.9173382562583 1.65
122 1 1 0 190.26667770257555 177.93669660888716 1.65
123 1 1 0 199.27033097130544 3.835427999178246 1.65
124 1 1 0 196.08879018904886 5.751164236488555 1.65
125 1 1 0 199.0411335634551 0.808221753173052 1.65
126 1 1 0 195.7484737696551 178.57479070475523 1.65
127 1 1 0 202.76895525734992 5.327608958289374 1.65
128 1 1 0 201.32538538115358 8.669841654036242 1.65
129 1 1 0 195.21637432721502 9.311422999298138 1.65
130 1 1 0 196.95434523327526 10.737919457734698 1.65
131 1 1 0 201.59065293033316 177.91842889825597 1.65
132 1 1 0 197.54431554879216 173.75355517921133 1.65
133 1 1 0 195.28058598297622 175.0927629621468 1.65
134 1 1 0 200.5617227023491 175.0461184887187 1.65
135 1 1 0 0.3766940454669907 3.648940198031272 1.65
136 1 1 0 1.016945372792776 0.16486528880898077 1.65
137 1 1 0 204.90888967947438 177.4496297916288 1.65
138 1 1 0 3.659346323126303 4.944786334123215 1.65
139 1 1 0 202.20484504062037 8.998380787393376 1.65
140 1 1 0 204.90274208988032 8.961228310673373 1.65
141 1 1 0 2.459237287375764 10.005310127850542 1.65
142 1 1 0 4.487562391971475 7.99607604491562 1.65
143 1 1 0 7.024974330156734 3.2298473978326303 1.65
144 1 1 0 7.123619209730656 0.7096755003038828 1.65
145 1 1 0 4.39824253002601 178.24021110555617 1.65
146 1 1 0 109.79250490056435 11.748662965489451 1.65
147 1 1 0 106.67088038682398 11.987778569390446 1.65
148 1 1 0 122.49507314262549 10.954600065538589 1.65
149 1 1 0 140.05696217670894 11.46676971780781 1.65
150 1 1 0 136.502679910136 12.039326892022922 1.65
151 1 1 0 145.2904130469408 13.782325266307172 1.65
152 1 1 0 142.04623251770576 14.2297843885502 1.65
153 1 1 0 165.66390819252325 10.935804022146922 1.65
154 1 1 0 162.39644235094437 12.52858763984153 1.65
155 1 1 0 171.55976406485576 11.621849570061341 1.65
156 1 1 0 168.23492813831507 12.797390786663321 1.65
157 1 1 0 178.88188494953988 11.352947796467909 1.65
158 1 1 0 182.57554119417682 12.010691923400659 1.65
159 1 1 0 200.88703987195493 11.23917694852349 1.65
160 1 1 0 203.58493692121488 11.202024471803487 1.65
161 1 1 0 115.42678137456772 13.580573385129966 1.65
162 1 1 0 112.06990626240051 14.33298072200438 1.65
163 1 1 0 123.0037416797877 13.33199587845072 1.65
164 1 1 0 120.61259706445205 15.39956844324371 1.65
165 1 1 0 117.64620457316272 15.836120077732843 1.65
166 1 1 0 129.57590444572273 13.952259774478508 1.65
167 1 1 0 126.39823357228275 14.974494338155514 1.65
168 1 1 0 135.3358550358789 15.124328955898575 1.65
169 1 1 0 132.10385120826092 16.055291175742788 1.65
170 1 1 0 150.64326046905998 14.891475418342557 1.65
171 1 1 0 147.36632449941825 16.10777341092316 1.65
172 1 1 0 156.30759053156407 15.353697021628145 1.65
173 1 1 0 153.15416037557216 16.726053967325406 1.65
174 1 1 0 173.8016385325386 13.9377746553437 1.65
175 1 1 0 176.9743873996258 13.60692685620108 1.65
176 1 1 0 183.11980250844803 14.91121567660154 1.65
177 1 1 0 185.8050721804473 16.51424679236369 1.65
178 1 1 0 189.16467469051014 14.916262357827044 1.65
179 1 1 0 196.77319056888234 14.379984158856983 1.65
180 1 1 0 199.82642554809524 14.552702516288642 1.65
181 1 1 0 105.27865367519553 14.549923501451715 1.65
182 1 1 0 102.16744502705373 12.803748912530784 1.65
183 1 1 0 110.72635232099432 17.394158479331303 1.65
184 1 1 0 107.0567242475297 17.371985654877644 1.65
185 1 1 0 122.54078179780109 17.935607800531525 1.65
186 1 1 0 125.62683812071286 17.792869440248232 1.65
187 1 1 0 140.53374277616857 17.48176936405688 1.65
188 1 1 0 137.3776475609146 17.80375675719014 1.65
189 1 1 0 146.47701378437628 19.15856396307365 1.65
190 1 1 0 142.88861259036167 20.085100793964344 1.65
191 1 1 0 161.9450921640987 15.8479235501708 1.65
192 1 1 0 158.89994789251156 17.307880788614362 1.65
193 1 1 0 167.6381868100343 16.32623975788102 1.65
194 1 1 0 164.61581667739682 17.78398890369389 1.65
195 1 1 0 173.04450751803915 17.122224951050562 1.65
196 1 1 0 170.2058917220756 18.3351488369859 1.65
197 1 1 0 178.23006354004303 16.771887077612572 1.65
198 1 1 0 180.6818224042283 17.418431771080282 1.65
199 1 1 0 3.8844960067993326 12.993705887662045 1.65
200 1 1 0 204.92835459799542 14.267408720350453 1.65
201 1 1 0 1.9124743472589816 15.015008319031843 1.65
202 1 1 0 6.76867288361308 15.148009539880379 1.65
203 1 1 0 7.759551516669694 8.580943000906636 1.65
204 1 1 0 9.05827620904808 11.213976702209576 1.65
205 1 1 0 8.758133277339171 14.391091588421574 1.65
206 1 1 0 117.96119902523994 19.222113056991944 1.65
207 1 1 0 112.66369686150921 19.998022830233683 1.65
208 1 1 0 116.23323288400431 20.793147924780648 1.65
209 1 1 0 121.29521130301667 20.21511139522813 1.65
210 1 1 0 131.69222582683173 19.293610449470886 1.65
211 1 1 0 126.34597133308729 20.942118047352835 1.65
212 1 1 0 128.74439703861066 21.72865278467861 1.65
213 1 1 0 135.077762279674 20.414794611943147 1.65
214 1 1 0 152.67204505929146 19.938758863011568 1.65
215 1 1 0 149.2718344377373 21.154970866179212 1.65
216 1 1 0 158.60797886439994 20.867379566149868 1.65
217 1 1 0 155.53350618717175 22.125900694849815 1.65
218 1 1 0 175.77645438650674 18.971497492098056 1.65
219 1 1 0 184.9205304916603 20.01818089956846 1.65
220 1 1 0 181.79445882104136 20.595270123996425 1.65
221 1 1 0 191.57506905700265 17.15408237352666 1.65
222 1 1 0 195.02542374035232 16.925462077930067 1.65
223 1 1 0 202.21074260346182 16.313725674898116 1.65
224 1 1 0 105.69018775228004 20.631755687912 1.65
225 1 1 0 102.64323687889953 21.02902797999172 1.65
226 1 1 0 100.34201013041266 14.387169523009264 1.65
227 1 1 0 100.50860144692327 18.36907695184763 1.65
228 1 1 0 111.3959320773229 22.883350613834708 1.65
229 1 1 0 108.09205104155835 23.539256295966688 1.65
230 1 1 0 123.26647389266944 22.68561256690714 1.65
231 1 1 0 142.0571949709034 22.967022558855007 1.65
232 1 1 0 135.59888318811647 23.11140122750417 1.65
233 1 1 0 138.82447729249685 24.16945716110736 1.65
234 1 1 0 148.91210571878065 24.105921371733828 1.65
235 1 1 0 143.76582651658663 26.083072300708636 1.65
236 1 1 0 146.2223227937291 26.49053856933283 1.65
237 1 1 0 164.28747848579428 21.00495179224153 1.65
238 1 1 0 161.32478494438453 22.62838521625395 1.65
239 1 1 0 170.03930830786882 22.00144522486397 1.65
240 1 1 0 167.14326520422497 23.213499034306736 1.65
241 1 1 0 175.9181465738494 21.78771867764706 1.65
242 1 1 0 173.01961629117505 23.60474252447764 1.65
243 1 1 0 186.87497377184718 21.993738748987358 1.65
244 1 1 0 190.16990982712673 20.727624657482203 1.65
245 1 1 0 202.66226499343364 18.659908188114162 1.65
246 1 1 0 200.9348182344567 20.759926753397203 1.65
247 1 1 0 2.881399157436448 18.135780588735756 1.65
248 1 1 0 0.5898576593192502 19.734363503270412 1.65
249 1 1 0 6.079156028143542 18.491908605624612 1.65
250 1 1 0 114.1264276784669 25.466774235746122 1.65
251 1 1 0 117.11501445915812 24.424398412352573 1.65
252 1 1 0 132.88135116358936 25.413830359564084 1.65
253 1 1 0 129.41240146692584 25.15226607921078 1.65
254 1 1 0 138.76316516981393 27.43532487704829 1.65
255 1 1 0 133.63892732616242 28.822404053171084 1.65
256 1 1 0 136.2951472280066 29.785842637052102 1.65
257 1 1 0 154.83603109436564 25.34873450082301 1.65
258 1 1 0 151.6148412475287 26.11254317453938 1.65
259 1 1 0 162.34393138099185 25.821531820326506 1.65
260 1 1 0 157.14713614900637 28.034067727272912 1.65
261 1 1 0 160.7350970158598 28.142318896503596 1.65
262 1 1 0 179.48439214419875 22.76494661607772 1.65
263 1 1 0 179.9375716154628 25.256053095413204 1.65
264 1 1 0 186.15796910283515 25.764439203422167 1.65
265 1 1 0 183.1809789195268 27.073630259660554 1.65
266 1 1 0 203.52009695474194 23.380946091513696 1.65
267 1 1 0 0.7711043789642531 22.60352416060509 1.65
268 1 1 0 107.37574979474577 26.622205776174017 1.65
269 1 1 0 104.52877146536356 28.6781830654092 1.65
270 1 1 0 101.84733029590852 27.72491789396331 1.65
271 1 1 0 101.06640851010631 24.228711978867327 1.65
272 1 1 0 113.34127013000555 28.218727371303878 1.65
273 1 1 0 109.89447328204896 28.718253229599792 1.65
274 1 1 0 120.81424319004651 25.323864716242877 1.65
275 1 1 0 121.80353897457812 27.765932716246727 1.65
276 1 1 0 128.12820377838554 28.187365061943698 1.65
277 1 1 0 125.36999769418414 28.94931428696968 1.65
278 1 1 0 141.5031772049349 28.797754969058573 1.65
279 1 1 0 10.438733016415487 4.299513417047032 1.65
280 1 1 0 10.345094134083272 6.5993193093286315 1.65
281 1 1 0 10.09556261405484 178.1414064333286 1.65
282 1 1 0 5.87845615023169 175.40872363596017 1.65
283 1 1 0 9.128043140207478 175.35811958317515 1.65
284 1 1 0 14.404416150632997 3.8047612403737827 1.65
285 1 1 0 15.120618132281926 2.1111164009109413 1.65
286 1 1 0 12.928778894594714 178.7724170867111 1.65
287 1 1 0 166.2227429254906 26.242385476998834 1.65
288 1 1 0 15.862784358030204 6.614495082638957 1.65
289 1 1 0 13.053095927739639 8.095670108253463 1.65
290 1 1 0 18.43562189456809 0.9749727620057467 1.65
291 1 1 0 22.665958767907682 4.034440265567322 1.65
292 1 1 0 21.14681995311553 6.970661735488696 1.65
293 1 1 0 21.41589101488507 1.3423196277488079 1.65
294 1 1 0 18.04011664520396 8.22441857884055 1.65
295 1 1 0 15.18141886868772 176.34437706514868 1.65
296 1 1 0 17.972212320702745 177.0279734519602 1.65
297 1 1 0 26.272823340985326 3.790586544736221 1.65
298 1 1 0 27.82960837568677 6.3639347505931605 1.65
299 1 1 0 23.202146748565994 9.616511673610635 1.65
300 1 1 0 26.278070598059593 9.253638409546202 1.65
301 1 1 0 28.07138682836052 0.9486444341617633 1.65
302 1 1 0 23.45668548310829 177.64680391795545 1.65
303 1 1 0 26.5053167235061 177.49698244519954 1.65
304 1 1 0 173.77467671060427 26.809079862840935 1.65
305 1 1 0 167.9956058004426 28.87319774106246 1.65
306 1 1 0 171.4730296294529 29.295401944883192 1.65
307 1 1 0 33.02370896839052 3.7220859971826945 1.65
308 1 1 0 31.198920175270093 6.397282152347264 1.65
309 1 1 0 31.452960656182395 0.8467964848541323 1.65
310 1 1 0 177.12638646454263 27.48316249534584 1.65
311 1 1 0 36.30051442512676 3.93453070560888 1.65
312 1 1 0 37.6590615728874 7.0920900070707145 1.65
313 1 1 0 32.36132569695542 9.419467587239968 1.65
314 1 1 0 35.54466163783649 9.901830733537233 1.65
315 1 1 0 38.1676937199036 1.13755439404855 1.65
316 1 1 0 33.17637388555829 177.3956729843525 1.65
317 1 1 0 36.61430149254326 177.47398618512074 1.65
318 1 1 0 42.63145281517057 4.532046570548032 1.65
319 1 1 0 40.74132658298822 7.468592809212332 1.65
320 1 1 0 41.416367099846596 1.3585674568460786 1.65
321 1 1 0 188.70741812354808 27.295999789672543 1.65
322 1 1 0 45.8229523755099 4.7206286668807 1.65
323 1 1 0 46.19917120389527 8.05038708887362 1.65
324 1 1 0 42.0583821177818 11.38244807406075 1.65
325 1 1 0 44.324727178349505 11.775660257389372 1.65
326 1 1 0 47.85686620356643 1.865606564927491 1.65
327 1 1 0 43.43921370394302 177.5672624230281 1.65
328 1 1 0 46.688213247323525 177.88571943477686 1.65
329 1 1 0 52.70329267617864 4.866344653790307 1.65
330 1 1 0 50.88536530006876 7.306010445458954 1.65
331 1 1 0 51.243248727912736 2.0942686584952575 1.65
332 1 1 0 48.04372192907526 8.663621549728056 1.65
333 1 1 0 56.11438788936512 5.2049432232225445 1.65
334 1 1 0 57.41369383558355 8.23561999169107 1.65
335 1 1 0 52.39240224186125 9.746999339476972 1.65
336 1 1 0 55.50963556418956 10.33801031627685 1.65
337 1 1 0 58.223913669738465 2.737259745530848 1.65
338 1 1 0 53.38896998186593 178.81924311028592 1.65
339 1 1 0 56.95853971050517 179.12363562788926 1.65
340 1 1 0 62.413589689967736 6.593683963804679 1.65
341 1 1 0 60.57158659910383 9.02033305553172 1.65
342 1 1 0 61.36522270682081 3.3412874222723326 1.65
343 1 1 0 4.285377345457988 23.882405868079214 1.65
344 1 1 0 1.711574811929169 29.13578960446901 1.65
345 1 1 0 4.71997652844668 26.704533719963607 1.65
346 1 1 0 65.54890064619043 6.779853982105019 1.65
347 1 1 0 66.91661246276313 9.122937150835849 1.65
348 1 1 0 61.59815516877591 12.266712576915305 1.65
349 1 1 0 64.58627127168307 13.988998187096477 1.65
350 1 1 0 66.54553563065078 12.51472286315295 1.65
351 1 1 0 67.17872804360867 3.7779887850324303 1.65
352 1 1 0 64.46123461777664 1.6926138651641947 1.65
353 1 1 0 70.53551857087248 3.78878012574338 1.65
354 1 1 0 72.07316111007928 6.457502430957998 1.65
355 1 1 0 70.08408239938818 8.789794258977878 1.65
356 1 1 0 7.301887496520092 21.36937322763339 1.65
357 1 1 0 72.48878658596436 1.1978549323162522 1.65
358 1 1 0 77.93861987557759 4.137695548949075 1.65
359 1 1 0 77.13005067582512 7.544439831145871 1.65
360 1 1 0 76.17768799833507 1.3861986337542116 1.65
361 1 1 0 74.91419427743065 8.217746839184276 1.65
362 1 1 0 67.80012737986954 176.96857548562605 1.65
363 1 1 0 71.04489128675482 177.51131074986628 1.65
364 1 1 0 64.68692857013885 178.61577397527194 1.65
365 1 1 0 114.51117874952261 31.416849745754355 1.65
366 1 1 0 119.62390125295374 30.586177261676784 1.65
367 1 1 0 116.81592730724797 32.38460745951696 1.65
368 1 1 0 81.26441891437409 4.093607284257532 1.65
369 1 1 0 83.79569937646225 6.203860439157768 1.65
370 1 1 0 83.26357196608662 8.371621792205822 1.65
371 1 1 0 79.92372230424598 9.668112919502382 1.65
372 1 1 0 83.30760287495045 1.599101689590544 1.65
373 1 1 0 78.08474658168139 178.12410657643446 1.65
374 1 1 0 81.88886241950026 178.38109789696233 1.65
375 1 1 0 87.05918952170211 4.70627643463709 1.65
376 1 1 0 86.63569054542086 1.9085892808081235 1.65
377 1 1 0 130.93269222059496 30.662774858497187 1.65
378 1 1 0 90.04490395160441 5.4413086735040945 1.65
379 1 1 0 90.39699642087841 8.406166334581593 1.65
380 1 1 0 85.54719190780496 10.710635885288088 1.65
381 1 1 0 88.24370210312414 10.961165824136295 1.65
382 1 1 0 89.62140497532316 2.6436215196751296 1.65
383 1 1 0 96.96186711512412 6.3682215111240605 1.65
384 1 1 0 95.87760536011766 9.525885427255899 1.65
385 1 1 0 95.07408102178975 3.017171073550945 1.65
386 1 1 0 93.00601175561626 10.101544428073268 1.65
387 1 1 0 90.95730495576417 1.6817697423621407 1.65
388 1 1 0 150.67411829902858 29.088921453224337 1.65
389 1 1 0 147.47867712699494 29.647164344681414 1.65
390 1 1 0 97.53790404057617 12.979479073278986 1.65
391 1 1 0 97.34829131549301 0.23820388941290682 1.65
392 1 1 0 155.5805214449471 31.39052246716883 1.65
393 1 1 0 152.32869344180628 31.68156751940388 1.65
394 1 1 0 12.136161441653156 10.924220214239803 1.65
395 1 1 0 178.45119916423093 30.4819761737118 1.65
396 1 1 0 182.11801290132527 30.451759991059983 1.65
397 1 1 0 17.070840882030556 12.048313643208202 1.65
398 1 1 0 20.383849018042163 12.70306060573206 1.65
399 1 1 0 29.19831872547213 11.29462399136158 1.65
400 1 1 0 36.7872140872002 12.912161507063242 1.65
401 1 1 0 40.218669557044684 14.016276045445142 1.65
402 1 1 0 108.95922013712406 31.77725981529139 1.65
403 1 1 0 105.64333759924155 32.15338108384468 1.65
404 1 1 0 111.42637924525759 33.72993362747505 1.65
405 1 1 0 48.14196590646543 12.122941722711872 1.65
406 1 1 0 50.77125925604763 12.29924236690475 1.65
407 1 1 0 124.89056589807964 32.48313920207574 1.65
408 1 1 0 121.94821358535917 33.20144866182639 1.65
409 1 1 0 56.09684861665466 13.328411461567994 1.65
410 1 1 0 59.02747545772074 14.472400658365798 1.65
411 1 1 0 130.4110126902526 33.855593326747716 1.65
412 1 1 0 127.12709245193867 34.91400844530028 1.65
413 1 1 0 141.01602467581466 32.21245874758155 1.65
414 1 1 0 137.6115513862396 33.06387417177146 1.65
415 1 1 0 71.25810394827822 11.314703123155585 1.65
416 1 1 0 74.2486151432125 11.489013352242145 1.65
417 1 1 0 146.50997775936216 32.541305223568365 1.65
418 1 1 0 143.33730990592272 33.86514558519149 1.65
419 1 1 0 80.49243646201559 12.847692634212281 1.65
420 1 1 0 83.64922312871695 13.587034040836004 1.65
421 1 1 0 92.4562571603798 13.317164124719845 1.65
422 1 1 0 89.66417883050268 13.657618565148455 1.65
423 1 1 0 162.66353404163388 31.496490036476875 1.65
424 1 1 0 157.33385924435603 34.36644693918927 1.65
425 1 1 0 160.82891097418937 34.364163339266625 1.65
426 1 1 0 93.53380691287494 16.45813945122614 1.65
427 1 1 0 95.74386018856991 16.69611340060265 1.65
428 1 1 0 166.04523128171792 31.806515224363405 1.65
429 1 1 0 172.94400090331217 32.48698886236937 1.65
430 1 1 0 176.5704606841518 32.99948045869308 1.65
431 1 1 0 13.976574108770322 13.266940252992947 1.65
432 1 1 0 183.65307718540575 33.79001827116497 1.65
433 1 1 0 186.7678788799535 34.10393502096604 1.65
434 1 1 0 29.219044404110285 13.705698324081535 1.65
435 1 1 0 20.677281928893194 14.488912547195135 1.65
436 1 1 0 23.6242039840445 15.662359222140337 1.65
437 1 1 0 26.42742060132522 15.924708349332784 1.65
438 1 1 0 32.26698486262315 15.75860958742 1.65
439 1 1 0 35.20391321936774 15.582273558099375 1.65
440 1 1 0 46.19754196885832 14.244957178158993 1.65
441 1 1 0 2.8820130729435287 32.45368567610931 1.65
442 1 1 0 5.938164007152058 32.91157519960419 1.65
443 1 1 0 8.63815632136584 27.820494762997374 1.65
444 1 1 0 8.685905539056854 30.709640170997652 1.65
445 1 1 0 53.00787935965516 14.593462944683301 1.65
446 1 1 0 120.95065873435414 36.20748390424473 1.65
447 1 1 0 117.64670866212565 36.044412174574695 1.65
448 1 1 0 59.450469478412806 17.37788852043023 1.65
449 1 1 0 64.9652311821792 18.03117916949166 1.65
450 1 1 0 62.400109099964105 19.21438142137492 1.65
451 1 1 0 69.38868362222593 13.872610105666546 1.65
452 1 1 0 136.2366039835176 35.86236719887573 1.65
453 1 1 0 132.71236875985286 36.32596361462347 1.65
454 1 1 0 74.88726270567902 14.341278010795623 1.65
455 1 1 0 77.99615520689298 15.15652058309555 1.65
456 1 1 0 149.68459383151458 34.0423152225582 1.65
457 1 1 0 85.39257319744564 16.517661903343733 1.65
458 1 1 0 88.71101870391219 16.337716488807978 1.65
459 1 1 0 149.8268540322675 36.32793618105733 1.65
460 1 1 0 155.78123960033022 37.471065974709326 1.65
461 1 1 0 152.72378080619202 37.93076643373105 1.65
462 1 1 0 167.5179870905122 34.77810208257705 1.65
463 1 1 0 170.93933288309614 35.03637151676229 1.65
464 1 1 0 177.99067172916662 36.029368509018006 1.65
465 1 1 0 181.4064744933262 36.850122504141716 1.65
466 1 1 0 12.124424087331994 15.934127189221371 1.65
467 1 1 0 18.57964908001243 17.231349034964342 1.65
468 1 1 0 21.526571135163735 18.404795709909543 1.65
469 1 1 0 28.019907516318437 18.936831126057452 1.65
470 1 1 0 31.14552847830386 18.638250588205008 1.65
471 1 1 0 203.22558427153552 34.511479374201365 1.65
472 1 1 0 0.782531229469754 35.038117274325906 1.65
473 1 1 0 37.32007574591481 18.49761372228652 1.65
474 1 1 0 40.41753405655893 17.681298773269617 1.65
475 1 1 0 104.47656201232304 34.891688750231864 1.65
476 1 1 0 101.461836226021 35.254309156633376 1.65
477 1 1 0 98.79838673078704 30.38891722646494 1.65
478 1 1 0 98.82709945763162 33.518360827737126 1.65
479 1 1 0 105.82603798984016 38.1954468460444 1.65
480 1 1 0 110.98528605454031 36.59788058429229 1.65
481 1 1 0 108.31787508315817 38.759493594889534 1.65
482 1 1 0 52.31666421819112 17.103618679402807 1.65
483 1 1 0 46.69613780471903 17.68981477456129 1.65
484 1 1 0 49.38640363059323 18.915686234783063 1.65
485 1 1 0 122.78013668565617 38.979993712240265 1.65
486 1 1 0 126.01421809052023 38.40482771304647 1.65
487 1 1 0 54.28080616103526 19.204891124589683 1.65
488 1 1 0 57.075191615788555 19.353503047785097 1.65
489 1 1 0 143.64114331815372 37.547234294627756 1.65
490 1 1 0 138.07708046939499 38.93845080992923 1.65
491 1 1 0 141.5258049527141 39.67222851817392 1.65
492 1 1 0 71.67515270621529 15.972819314886447 1.65
493 1 1 0 146.95607137234606 38.50901489150376 1.65
494 1 1 0 78.6672275975691 18.203965164873992 1.65
495 1 1 0 84.38646915651249 19.288940014617648 1.65
496 1 1 0 81.52195233428222 19.78868570263829 1.65
497 1 1 0 162.32813562369756 37.4823257108408 1.65
498 1 1 0 165.63551449993633 37.58623926626469 1.65
499 1 1 0 91.12053112920285 18.606951378788825 1.65
500 1 1 0 157.5472526175248 40.27563858455879 1.65
501 1 1 0 160.5990969110588 40.289181920612904 1.65
502 1 1 0 172.37579649970456 37.972909073814435 1.65
503 1 1 0 175.80067556493537 38.45341446974645 1.65
504 1 1 0 188.04794487661454 37.32984371129828 1.65
505 1 1 0 182.45818960522624 40.3192271117718 1.65
506 1 1 0 187.66045442993737 40.727602451007215 1.65
507 1 1 0 185.51350894080065 42.15203488242367 1.65
508 1 1 0 13.00530300041484 18.499976587551465 1.65
509 1 1 0 16.07282830898401 19.22997310161611 1.65
510 1 1 0 191.34260770732587 37.00703963554237 1.65
511 1 1 0 21.826951921482163 21.21762103862411 1.65
512 1 1 0 27.311690961007724 22.028869044603 1.65
513 1 1 0 24.684999279154614 22.87873286812547 1.65
514 1 1 0 197.93466446117054 37.13806609378954 1.65
515 1 1 0 201.24983837330927 37.306810655337664 1.65
516 1 1 0 1.9657936738606097 38.11407746702135 1.65
517 1 1 0 5.032339537205709 39.88251273223914 1.65
518 1 1 0 7.211444514781395 35.52242386030062 1.65
519 1 1 0 6.97396243850328 38.67086324548743 1.65
520 1 1 0 71.12056426976858 18.378183018554665 1.65
521 1 1 0 67.69340668117314 19.901242234254344 1.65
522 1 1 0 103.73732258521835 41.439895555960675 1.65
523 1 1 0 100.50897635069863 38.16805238850313 1.65
524 1 1 0 101.43498673237885 41.049880692017894 1.65
525 1 1 0 116.30224864245844 38.6090192756485 1.65
526 1 1 0 113.34973194602367 38.751094834119 1.65
527 1 1 0 73.64639424046553 20.492039045914005 1.65
528 1 1 0 76.5390666860497 20.3694554680728 1.65
529 1 1 0 121.22460053918687 42.05479898135234 1.65
530 1 1 0 118.0506625682176 41.84689627443061 1.65
531 1 1 0 90.2009671758794 21.597263148184982 1.65
532 1 1 0 86.7853507096556 22.09930636947805 1.65
533 1 1 0 131.45615064797863 39.7082161272153 1.65
534 1 1 0 128.04192021695994 40.72866510708574 1.65
535 1 1 0 97.32192945250031 19.571075832526812 1.65
536 1 1 0 10.540891396399573 21.43824997462759 1.65
537 1 1 0 136.47461555731323 41.90992357013854 1.65
538 1 1 0 133.3779209595616 42.21609247167687 1.65
539 1 1 0 151.5621325021528 41.06729138453893 1.65
540 1 1 0 148.4176975787173 41.34404502960424 1.65
541 1 1 0 16.303321146290422 22.588177731474353 1.65
542 1 1 0 19.110522703637265 23.40237899353715 1.65
543 1 1 0 32.56055185039864 21.209261657659205 1.65
544 1 1 0 35.79817076126499 21.244960821061348 1.65
545 1 1 0 167.02282150057974 40.525414038300845 1.65
546 1 1 0 170.34175770776403 40.653814411665344 1.65
547 1 1 0 43.40815685848568 19.76699339589847 1.65
548 1 1 0 192.81731873885292 39.86523130593594 1.65
549 1 1 0 195.99839734596796 40.078454268501936 1.65
550 1 1 0 51.350545573437365 21.01695867996994 1.65
551 1 1 0 58.10847323492922 22.458580112171852 1.65
552 1 1 0 61.3023269519151 22.631958685793034 1.65
553 1 1 0 202.89765702008114 40.27138231529557 1.65
554 1 1 0 0.29772122387282707 40.55201122685472 1.65
555 1 1 0 68.19037454485449 23.078854992854573 1.65
556 1 1 0 73.33769740545154 23.998371361896506 1.65
557 1 1 0 71.30883529843595 25.062128093137396 1.65
558 1 1 0 112.09981966073673 41.938405548285616 1.65
559 1 1 0 109.1731245623132 42.08592009781503 1.65
560 1 1 0 77.8699860855149 23.038845052931258 1.65
561 1 1 0 80.70694874004988 22.804067239378732 1.65
562 1 1 0 97.52769250520792 22.9394016842357 1.65
563 1 1 0 92.08060583243955 24.056574532937244 1.65
564 1 1 0 95.41598611416558 24.672562564626485 1.65
565 1 1 0 127.23756263429965 44.065895446017684 1.65
566 1 1 0 122.07348347027774 45.466099465870954 1.65
567 1 1 0 124.56521246142307 46.19789185140517 1.65
568 1 1 0 142.32503473866026 43.146221526777445 1.65
569 1 1 0 137.51732470900055 45.43485664594963 1.65
570 1 1 0 139.9190194070285 45.93737689434385 1.65
571 1 1 0 12.911939832532056 23.96205975702698 1.65
572 1 1 0 153.3074130300082 43.419628787952185 1.65
573 1 1 0 156.23507435124202 43.08767644699376 1.65
574 1 1 0 161.94782781377074 43.37874688667935 1.65
575 1 1 0 165.0641735270529 43.5110654489434 1.65