
15336 atoms
0 bonds
0 angles
0 dihedrals
0 impropers

2 atom types
0 bond types
0 angle types
0 dihedral types
0 improper types

0 202.910100924186 xlo xhi
0 175.92270847675684 ylo yhi
-100 100 zlo zhi

Atoms

1 1 1 0 125.10904410769813 47.03066329038997 1.65
2 1 1 0 129.54196118013897 47.429878110278395 1.65
3 1 1 0 130.09778188218257 50.06664596031664 1.65
4 1 1 0 126.95948770810642 52.642466239464966 1.65
5 1 1 0 122.53730805626327 48.78100600653899 1.65
6 1 1 0 123.83193095462794 51.75604110557574 1.65
7 1 1 0 127.5878347911279 43.14498176130631 1.65
8 1 1 0 130.6817322027653 44.5800613398666 1.65
9 1 1 0 124.51047264046292 44.63205620703969 1.65
10 1 1 0 133.0944030724952 50.8891593503673 1.65
11 1 1 0 133.3515446482828 54.4352289680844 1.65
12 1 1 0 125.92332994173647 55.80108499432038 1.65
13 1 1 0 131.15178963980796 56.56351604384277 1.65
14 1 1 0 127.36316435324822 57.13959268577106 1.65
15 1 1 0 141.54244819208114 51.32893608318938 1.65
16 1 1 0 138.38667746122317 51.69579295884959 1.65
17 1 1 0 141.5086512135132 47.76228209155435 1.65
18 1 1 0 137.8515852367448 46.343098072373905 1.65
19 1 1 0 136.28594695078715 49.227617300274275 1.65
20 1 1 0 143.4461543500095 54.206369122999746 1.65
21 1 1 0 136.7559387290771 54.59899103041703 1.65
22 1 1 0 138.29584986240778 57.0475711300942 1.65
23 1 1 0 141.83029475248222 57.02180609833712 1.65
24 1 1 0 143.71695388047644 46.915897961840514 1.65
25 1 1 0 147.5449408406568 48.879532205969234 1.65
26 1 1 0 148.85651195617783 51.899286261637705 1.65
27 1 1 0 146.75317792999138 54.55443493652873 1.65
28 1 1 0 106.56527248383084 4.329451043984857 1.65
29 1 1 0 103.48388865563248 4.323879985806327 1.65
30 1 1 0 108.8342975641741 6.207684358931406 1.65
31 1 1 0 108.74144827391157 9.1131965886204 1.65
32 1 1 0 105.90107465541146 11.196023153341384 1.65
33 1 1 0 103.04862323377107 9.977637256556518 1.65
34 1 1 0 102.01284386639517 6.614287749794805 1.65
35 1 1 0 108.43294306997508 1.4555849743139737 1.65
36 1 1 0 101.91116452974731 1.1743566683298408 1.65
37 1 1 0 107.4343712318783 174.94002227744866 1.65
38 1 1 0 103.99397651984887 174.66436502964305 1.65
39 1 1 0 110.70196815031834 3.3338182892605244 1.65
40 1 1 0 114.75520293213228 6.026842480926067 1.65
41 1 1 0 112.49415994047244 3.200013238889772 1.65
42 1 1 0 114.80079746290313 9.087381433225774 1.65
43 1 1 0 111.81782730005874 10.660336330214195 1.65
44 1 1 0 117.55191487752647 4.439288891128881 1.65
45 1 1 0 117.04809058261901 1.2832172811608027 1.65
46 1 1 0 114.0856873604692 0.10154707776006955 1.65
47 1 1 0 120.6536213153299 5.91122051812585 1.65
48 1 1 0 120.7683888372432 9.060393428913375 1.65
49 1 1 0 117.71227693021063 10.649000754216114 1.65
50 1 1 0 122.93975170713732 3.8808199740559486 1.65
51 1 1 0 122.0892579267809 0.29343552014439966 1.65
52 1 1 0 119.29930324006602 175.09047293100306 1.65
53 1 1 0 125.73351123881932 4.863609368867371 1.65
54 1 1 0 128.42773021329276 6.5426497079436725 1.65
55 1 1 0 128.89160526493498 8.126402257436956 1.65
56 1 1 0 123.24097639186854 11.062584117756083 1.65
57 1 1 0 126.38384345327945 10.47995315127326 1.65
58 1 1 0 127.82825946069204 2.3051528223660784 1.65
59 1 1 0 127.10236176839857 175.3572905279061 1.65
60 1 1 0 124.15711976616943 174.32836262049582 1.65
61 1 1 0 130.52247843516548 3.98419316144238 1.65
62 1 1 0 132.69317052581576 2.8170312865402423 1.65
63 1 1 0 133.01829015956852 175.46450034740548 1.65
64 1 1 0 131.6946177008905 171.3031810669672 1.65
65 1 1 0 132.94183649618324 172.12143675983015 1.65
66 1 1 0 128.87448158133202 172.94283575822786 1.65
67 1 1 0 137.57452537513865 2.0966769501996634 1.65
68 1 1 0 135.6555944999096 4.650941445726354 1.65
69 1 1 0 135.81904482383004 175.11176294946083 1.65
70 1 1 0 140.4360934683617 1.740569369105649 1.65
71 1 1 0 142.2386061372012 4.471792482679785 1.65
72 1 1 0 136.34851888055448 7.560036366674753 1.65
73 1 1 0 142.11597206153107 8.24054882743047 1.65
74 1 1 0 139.77291538464883 9.49451381659874 1.65
75 1 1 0 141.05328878551236 173.94334159060543 1.65
76 1 1 0 138.11526702890404 170.9563855841241 1.65
77 1 1 0 135.7425911604448 171.7686993618855 1.65
78 1 1 0 145.21037444394162 4.0649556817358246 1.65
79 1 1 0 147.05608053588833 1.4498596886794815 1.65
80 1 1 0 143.26901912703016 172.96851937708098 1.65
81 1 1 0 146.1383732608334 174.6179351957251 1.65
82 1 1 0 158.52148941460192 2.462559334475971 1.65
83 1 1 0 155.21575913189486 3.4041770825070974 1.65
84 1 1 0 160.79380185102244 4.787358257973248 1.65
85 1 1 0 155.6455719281249 6.377673954324966 1.65
86 1 1 0 158.61426078287212 7.134009409074148 1.65
87 1 1 0 159.01030989541047 0.1553069808080636 1.65
88 1 1 0 156.07304750727695 173.83578152323767 1.65
89 1 1 0 161.9343273446359 174.4157028180368 1.65
90 1 1 0 157.87696365007125 169.5094030329339 1.65
91 1 1 0 156.105114871491 170.53926027120878 1.65
92 1 1 0 160.76891373508263 171.1436116454347 1.65
93 1 1 0 152.53392024962682 1.6383709204756012 1.65
94 1 1 0 152.90238814420036 174.3772277148741 1.65
95 1 1 0 166.21675165286172 1.9775022246294072 1.65
96 1 1 0 165.84524068132117 5.573486141647419 1.65
97 1 1 0 164.85120021478423 174.9143227910211 1.65
98 1 1 0 163.82798423043877 6.574709794307648 1.65
99 1 1 0 169.60026248900152 1.8519118403667019 1.65
100 1 1 0 171.1006445889203 4.691683570713531 1.65
101 1 1 0 169.00414318428403 7.299790993175558 1.65
102 1 1 0 171.18939285392304 175.15390688223758 1.65
103 1 1 0 166.62887818536103 171.77662251936349 1.65
104 1 1 0 169.58355998836004 172.14179699484265 1.65
105 1 1 0 176.407114092861 2.3160432204926003 1.65
106 1 1 0 174.2586608594326 5.1102579465024425 1.65
107 1 1 0 174.83822818727018 175.19946388657456 1.65
108 1 1 0 179.95693592482385 2.931419493363141 1.65
109 1 1 0 180.23388300102397 6.689038007559092 1.65
110 1 1 0 174.71527772616423 8.607844411806717 1.65
111 1 1 0 177.14067803579272 9.571248199992832 1.65
112 1 1 0 182.38661917954346 0.15086745048054695 1.65
113 1 1 0 179.13472015083138 170.0371289911816 1.65
114 1 1 0 177.9523424774703 170.21747715181496 1.65
115 1 1 0 181.43941714973747 172.68535377232772 1.65
116 1 1 0 176.25847031606597 172.60696616516879 1.65
117 1 1 0 187.97681553357157 3.7131590719521665 1.65
118 1 1 0 187.62625321610662 6.108221573061181 1.65
119 1 1 0 185.69609422127579 0.8849411199475332 1.65
120 1 1 0 184.88194677290434 6.9494257518769 1.65
121 1 1 0 182.19998112483705 7.5779080954968645 1.65
122 1 1 0 191.64343794882612 2.635074022374751 1.65
123 1 1 0 194.4639991358923 4.063801479273897 1.65
124 1 1 0 194.61739776411773 7.497959724334419 1.65
125 1 1 0 191.44627425958666 8.464294768544288 1.65
126 1 1 0 191.33872416824286 175.42063405201972 1.65
127 1 1 0 188.0066836330401 174.34368509601572 1.65
128 1 1 0 197.2915716177999 2.8210704418449026 1.65
129 1 1 0 198.440470327648 175.74767937457412 1.65
130 1 1 0 197.1699007539624 173.67993503019835 1.65
131 1 1 0 193.82753215879157 173.60696471026074 1.65
132 1 1 0 199.9608197515031 4.9054558509845405 1.65
133 1 1 0 198.33796512072794 7.831076137473424 1.65
134 1 1 0 202.68074536772286 3.0764995449193746 1.65
135 1 1 0 201.99783282570024 175.60191348136294 1.65
136 1 1 0 2.6377242903276965 4.230166675997674 1.65
137 1 1 0 199.77153714737852 10.308274709415135 1.65
138 1 1 0 0.746773878958578 10.300851106859056 1.65
139 1 1 0 3.1190980762669938 7.802667211713275 1.65
140 1 1 0 5.536448782141724 2.228131714360153 1.65
141 1 1 0 5.754146450025839 174.78557284668426 1.65
142 1 1 0 0.41121453402455677 172.17581135061255 1.65
143 1 1 0 3.2859097160195554 171.78565822700338 1.65
144 1 1 0 133.24656414302646 9.200396415733435 1.65
145 1 1 0 147.10309149141594 7.001844594844846 1.65
146 1 1 0 145.4751195037085 9.710775784108735 1.65
147 1 1 0 150.07207913083639 6.399007009986205 1.65
148 1 1 0 150.19948113961289 2.858259616694988 1.65
149 1 1 0 152.83633103708036 8.152615185584688 1.65
150 1 1 0 159.83357199558012 9.785434529956884 1.65
151 1 1 0 163.300122495234 9.921300417055303 1.65
152 1 1 0 171.16405586423292 9.975057524097043 1.65
153 1 1 0 185.21847922541806 10.079076422431735 1.65
154 1 1 0 182.53651357735077 10.707558766051697 1.65
155 1 1 0 190.787624977124 11.071812589336169 1.65
156 1 1 0 187.30413638615772 11.845390064407896 1.65
157 1 1 0 112.00607576842746 13.973782485153945 1.65
158 1 1 0 106.494974888646 14.390005133231776 1.65
159 1 1 0 109.52359697551485 15.620624723450543 1.65
160 1 1 0 117.89950561750454 13.815970693039995 1.65
161 1 1 0 115.17627461856577 15.567797526989406 1.65
162 1 1 0 121.42442772378682 14.223984812654322 1.65
163 1 1 0 129.24834335750515 12.658024673527315 1.65
164 1 1 0 128.89520556538255 15.281406828023089 1.65
165 1 1 0 122.58632813888606 16.642570114085647 1.65
166 1 1 0 126.00495647328376 17.02036523542668 1.65
167 1 1 0 133.13449203634693 11.73539738690673 1.65
168 1 1 0 135.92031572416778 13.705234283403664 1.65
169 1 1 0 139.45678433494163 13.104710762154358 1.65
170 1 1 0 153.06217517298705 10.825942622095717 1.65
171 1 1 0 146.94998253144715 12.545997684220847 1.65
172 1 1 0 150.44186134674854 12.858968703996696 1.65
173 1 1 0 157.09072727673959 11.702426511718732 1.65
174 1 1 0 164.02704756890392 13.269244233786736 1.65
175 1 1 0 170.13798119907523 12.6654824920064 1.65
176 1 1 0 166.68773714191386 14.339383430476577 1.65
177 1 1 0 177.96816941500168 13.194418756452315 1.65
178 1 1 0 181.39790683274663 13.441859234573409 1.65
179 1 1 0 198.07439208566421 13.673094358192197 1.65
180 1 1 0 192.35972706085164 14.252528168378094 1.65
181 1 1 0 195.0417986382102 15.342946409502279 1.65
182 1 1 0 1.686728764289171 13.418571770309654 1.65
183 1 1 0 200.35493806087243 16.865889232398505 1.65
184 1 1 0 0.0819370837313329 16.618790247072038 1.65
185 1 1 0 104.7635150075245 17.338685094197597 1.65
186 1 1 0 102.16934558542718 17.699871484132416 1.65
187 1 1 0 100.22638755115115 11.696079828583727 1.65
188 1 1 0 99.93282636896906 14.943716025839972 1.65
189 1 1 0 131.68879954438646 17.33408559820876 1.65
190 1 1 0 134.82776102432987 16.68054034020992 1.65
191 1 1 0 141.72723839369039 15.955741553019491 1.65
192 1 1 0 145.15907583014342 15.725342064019378 1.65
193 1 1 0 157.79593120623434 13.71092369795538 1.65
194 1 1 0 151.94462395501318 15.697212839366351 1.65
195 1 1 0 155.2701417107465 15.67268394370202 1.65
196 1 1 0 161.2657009987448 15.141875532924967 1.65
197 1 1 0 172.47457441786213 15.579264127846987 1.65
198 1 1 0 176.00746925270082 15.901008790777965 1.65
199 1 1 0 186.93497497510174 15.22745317423493 1.65
200 1 1 0 183.71071106975796 16.19544000078048 1.65
201 1 1 0 189.5034803988716 16.849958490208483 1.65
202 1 1 0 4.622419878407722 14.256599458557785 1.65
203 1 1 0 6.368382770738057 9.005177664020067 1.65
204 1 1 0 6.931749687548199 12.341389247413982 1.65
205 1 1 0 109.65503226320251 19.00678453360971 1.65
206 1 1 0 106.84770546577211 20.272578685462577 1.65
207 1 1 0 115.1542423631777 18.95217809533309 1.65
208 1 1 0 112.11547880072705 20.744322863656794 1.65
209 1 1 0 120.66977915122126 19.663246707451393 1.65
210 1 1 0 117.61738417667372 20.71920467144017 1.65
211 1 1 0 127.36826074747285 20.33291720522398 1.65
212 1 1 0 122.6047136224601 22.168185479246418 1.65
213 1 1 0 125.88456688431398 22.460060855677966 1.65
214 1 1 0 130.65641411359957 20.46518749066907 1.65
215 1 1 0 136.77386987966295 19.274219367528627 1.65
216 1 1 0 140.13687863824958 19.149944101587504 1.65
217 1 1 0 147.36145033254405 18.7878620751215 1.65
218 1 1 0 150.65511964211242 18.446761830692623 1.65
219 1 1 0 157.0438600412624 18.014675760573443 1.65
220 1 1 0 160.48739491766514 17.75222191159089 1.65
221 1 1 0 167.28452597470815 18.32369392293673 1.65
222 1 1 0 170.51824497928854 18.67409557746489 1.65
223 1 1 0 177.13709218413746 18.87669992295216 1.65
224 1 1 0 183.02402513880722 19.01854964799576 1.65
225 1 1 0 180.09666872351264 19.9229474552902 1.65
226 1 1 0 195.3634823256634 19.473094463430165 1.65
227 1 1 0 198.55901146806804 20.26980654659119 1.65
228 1 1 0 109.98292949921715 56.80794733740075 1.65
229 1 1 0 112.50579605167408 54.260539629788454 1.65
230 1 1 0 107.07411179200294 55.10263229347445 1.65
231 1 1 0 107.494601267312 51.39682475389303 1.65
232 1 1 0 110.95514904525578 51.06522965393973 1.65
233 1 1 0 110.82304933588135 59.977093998121134 1.65
234 1 1 0 115.5850845821929 54.97951537816994 1.65
235 1 1 0 116.4557655079227 58.303215433345926 1.65
236 1 1 0 114.21659681406808 60.753386345684824 1.65
237 1 1 0 104.34779078728499 56.04123925498927 1.65
238 1 1 0 103.82388862162358 59.259463184706895 1.65
239 1 1 0 108.70948323830679 62.57285281484952 1.65
240 1 1 0 105.70130285470286 62.1637814379446 1.65
241 1 1 0 2.1792298345667627 19.195688959373207 1.65
242 1 1 0 4.951985253734709 17.56715251315023 1.65
243 1 1 0 132.27384915577272 22.7213006058128 1.65
244 1 1 0 135.25234344189266 22.1838777406712 1.65
245 1 1 0 141.3946299430577 22.053801503000503 1.65
246 1 1 0 146.63757324955017 22.217586728727202 1.65
247 1 1 0 144.0330226832175 23.367026676273767 1.65
248 1 1 0 152.90769947620225 20.944446073931562 1.65
249 1 1 0 155.97092211961893 20.536888899476715 1.65
250 1 1 0 161.8438657435401 20.43813415015501 1.65
251 1 1 0 165.03383182412236 20.9480246794009 1.65
252 1 1 0 172.168112818479 21.59453764056598 1.65
253 1 1 0 175.25406518848925 21.475397323122273 1.65
254 1 1 0 189.73787543271789 19.96361010190982 1.65
255 1 1 0 185.0634676968586 22.305453311815214 1.65
256 1 1 0 187.60467011902682 22.74704637296153 1.65
257 1 1 0 192.91580578215112 21.496327834007314 1.65
258 1 1 0 111.70307558351865 24.348605814380775 1.65
259 1 1 0 106.27767772872573 23.277148728375373 1.65
260 1 1 0 108.67260130894773 25.615637527246488 1.65
261 1 1 0 117.30253257985545 24.34710661858864 1.65
262 1 1 0 114.42698754915102 26.18436299320554 1.65
263 1 1 0 120.49906254543322 25.04045819163548 1.65
264 1 1 0 127.41327477353201 25.305206191291976 1.65
265 1 1 0 121.60443137072257 27.275355076814222 1.65
266 1 1 0 125.23879033696748 27.248227700039166 1.65
267 1 1 0 132.0851355112397 26.250568630388862 1.65
268 1 1 0 130.36857950409552 27.21743496427751 1.65
269 1 1 0 136.631869811932 24.76543329236994 1.65
270 1 1 0 139.41114755451042 24.75963232064037 1.65
271 1 1 0 149.3063491641547 24.688857977684048 1.65
272 1 1 0 152.2828060812384 23.756817567317285 1.65
273 1 1 0 158.90670703753096 22.269598606884085 1.65
274 1 1 0 165.10649557171962 24.596636101319216 1.65
275 1 1 0 170.92393801573627 24.661606102391772 1.65
276 1 1 0 167.60378973204797 26.018942661283244 1.65
277 1 1 0 180.047874147863 23.045575384195843 1.65
278 1 1 0 177.24739063519297 23.940201060356486 1.65
279 1 1 0 182.78328874425014 24.723266317168008 1.65
280 1 1 0 192.76447657371284 25.09360911143222 1.65
281 1 1 0 189.39460440537215 26.142980119601326 1.65
282 1 1 0 199.66466566935904 23.251247909527162 1.65
283 1 1 0 195.17698228963457 27.01097633220681 1.65
284 1 1 0 198.16765331032371 26.01410043952877 1.65
285 1 1 0 2.3785450196362774 22.66997139626979 1.65
286 1 1 0 0.08800063359768728 24.363330120025573 1.65
287 1 1 0 103.32349154773236 24.47701362074744 1.65
288 1 1 0 101.29934986268141 21.83362996776946 1.65
289 1 1 0 134.8949515860939 27.57225098247598 1.65
290 1 1 0 143.32136915965827 27.390070670508813 1.65
291 1 1 0 140.5142982082327 27.935950714464266 1.65
292 1 1 0 148.80648440003228 27.940830877250043 1.65
293 1 1 0 145.42605496186852 29.492603622528243 1.65
294 1 1 0 158.61815019057232 24.683037892171573 1.65
295 1 1 0 155.05747187769643 25.762699678149925 1.65
296 1 1 0 161.6279726441787 26.50018485736081 1.65
297 1 1 0 173.4728584723236 27.542372107392765 1.65
298 1 1 0 176.71035872177006 26.940107382801187 1.65
299 1 1 0 5.3907606597058955 23.972074822710013 1.65
300 1 1 0 7.592415889198538 18.934767679079997 1.65
301 1 1 0 7.831876110100202 21.865407551743193 1.65
302 1 1 0 106.74952920665376 28.516655888419233 1.65
303 1 1 0 103.26331461424755 27.81551183111353 1.65
304 1 1 0 114.40560799620691 29.763704334459522 1.65
305 1 1 0 107.65057100316213 30.903033617800006 1.65
306 1 1 0 111.32943162062371 31.600799028305723 1.65
307 1 1 0 120.40275426832771 30.384856050925258 1.65
308 1 1 0 117.64560051608869 31.68499036236411 1.65
309 1 1 0 126.20279675295858 29.947241504498578 1.65
310 1 1 0 123.61654675237592 31.960906680031222 1.65
311 1 1 0 129.61885724980493 30.27361482071582 1.65
312 1 1 0 137.5891962908858 29.72501099448963 1.65
313 1 1 0 154.64472183950815 28.712814886431662 1.65
314 1 1 0 151.3701912789277 29.958905675165017 1.65
315 1 1 0 160.84767761562122 29.68424583029498 1.65
316 1 1 0 157.42510512382657 30.81721407338748 1.65
317 1 1 0 166.9525825166746 29.474579081423887 1.65
318 1 1 0 172.57262654802233 30.602753585930152 1.65
319 1 1 0 169.37249887606163 31.177624001069802 1.65
320 1 1 0 182.53431557098105 27.633795949947494 1.65
321 1 1 0 179.261869061171 28.956011339420034 1.65
322 1 1 0 188.33338159843333 29.364342737736898 1.65
323 1 1 0 184.98054627888192 29.87819542433321 1.65
324 1 1 0 195.73490283529142 30.72895224447768 1.65
325 1 1 0 190.52307356037682 32.09537292411543 1.65
326 1 1 0 194.0928727001745 32.683854088745285 1.65
327 1 1 0 0.2697324715905438 27.92818976045736 1.65
328 1 1 0 200.30824743607158 28.641606900238983 1.65
329 1 1 0 2.742821179502083 30.352557726181924 1.65
330 1 1 0 5.732544857688357 29.66536393064063 1.65
331 1 1 0 6.627859120000201 26.739406089770448 1.65
332 1 1 0 130.58350109673543 33.13657193223882 1.65
333 1 1 0 124.50502156743376 34.62870470068781 1.65
334 1 1 0 128.0559154149469 35.47799663667817 1.65
335 1 1 0 137.22715169809467 32.50724910398181 1.65
336 1 1 0 133.78099483308904 34.18431253737981 1.65
337 1 1 0 139.97145746381887 35.00281052701199 1.65
338 1 1 0 145.30248817523395 32.72573109991972 1.65
339 1 1 0 143.01700622140098 34.907819850955825 1.65
340 1 1 0 162.9672249464087 32.56049826684081 1.65
341 1 1 0 165.09797733667125 32.25784066880509 1.65
342 1 1 0 199.2634930241272 31.493242690645587 1.65
343 1 1 0 100.66392517694636 29.82709708772001 1.65
344 1 1 0 98.9440866527864 22.2803328151785 1.65
345 1 1 0 97.42844675029502 25.27507220998016 1.65
346 1 1 0 97.79390948523883 28.563908611661134 1.65
347 1 1 0 104.6546022074268 33.85964479430781 1.65
348 1 1 0 101.15417097361725 33.48485232153351 1.65
349 1 1 0 111.41648602149704 34.60359884717684 1.65
350 1 1 0 108.79892265670549 36.29153552542182 1.65
351 1 1 0 105.71589946009684 36.24534688305851 1.65
352 1 1 0 116.99308869944021 35.579334705683 1.65
353 1 1 0 113.84015058043175 36.660848496649535 1.65
354 1 1 0 122.29234004938809 36.851887230307504 1.65
355 1 1 0 118.96232311590752 37.61554127155496 1.65
356 1 1 0 134.4301181732592 37.77913172707754 1.65
357 1 1 0 137.34176769063583 40.13258328878025 1.65
358 1 1 0 139.43695011618988 39.0333255221127 1.65
359 1 1 0 151.00037986157344 33.284359325018556 1.65
360 1 1 0 148.31310619604344 34.499412004495056 1.65
361 1 1 0 156.85853489473868 33.75867108557778 1.65
362 1 1 0 153.708340193066 34.9797255484755 1.65
363 1 1 0 158.91987759500958 36.53375428317149 1.65
364 1 1 0 161.60599515488494 36.46854970752702 1.65
365 1 1 0 179.27785645429404 31.962355777825767 1.65
366 1 1 0 174.19158547881977 33.98014975873819 1.65
367 1 1 0 176.9420372162427 34.45004324734207 1.65
368 1 1 0 182.90829653830394 32.72026412782513 1.65
369 1 1 0 189.68287705736128 35.36826045281017 1.65
370 1 1 0 183.72709296482 35.10185057104698 1.65
371 1 1 0 186.94102230763522 36.34651440262299 1.65
372 1 1 0 201.3524847743928 34.07295161311743 1.65
373 1 1 0 1.9602269700627062 33.64568378843539 1.65
374 1 1 0 109.49194836335374 39.18838618049462 1.65
375 1 1 0 104.46686953362351 39.36448310189717 1.65
376 1 1 0 107.27157121464343 41.07656550345536 1.65
377 1 1 0 128.93028680780677 38.303416371460784 1.65
378 1 1 0 123.5940524707724 39.7180294825 1.65
379 1 1 0 126.68110538167794 40.32026668766292 1.65
380 1 1 0 132.10699582976542 39.55681085671917 1.65
381 1 1 0 144.50561106934526 38.0437184250119 1.65
382 1 1 0 147.61199220399098 37.69133861027493 1.65
383 1 1 0 167.51789369605825 33.960885588451006 1.65
384 1 1 0 168.4536960390873 35.99305831182641 1.65
385 1 1 0 171.92726014988813 36.58719289725325 1.65
386 1 1 0 195.21579717282398 36.49888654844865 1.65
387 1 1 0 192.4296840610637 37.91701417941482 1.65
388 1 1 0 200.51530611752185 36.933539736248115 1.65
389 1 1 0 197.69939284809814 38.2065799377419 1.65
390 1 1 0 3.9702851500070837 36.441765584657475 1.65
391 1 1 0 9.07390311864735 31.25508750925201 1.65
392 1 1 0 9.57474157008085 33.53451669746776 1.65
393 1 1 0 7.050599726389437 36.25629916529026 1.65
394 1 1 0 112.42512336196158 39.63176725271484 1.65
395 1 1 0 118.92501587648836 41.51754828241933 1.65
396 1 1 0 121.9273490801834 42.47588399005052 1.65
397 1 1 0 132.95171181527397 43.008740751481604 1.65
398 1 1 0 136.37420026891792 43.796551684043685 1.65
399 1 1 0 142.55942842191334 40.704199163271774 1.65
400 1 1 0 153.84195646117684 37.9144243830009 1.65
401 1 1 0 149.27235925571836 40.417127919417894 1.65
402 1 1 0 152.01631964121785 40.370909757251546 1.65
403 1 1 0 156.99163010597118 39.07080825338361 1.65
404 1 1 0 166.48966399057917 38.80143774104515 1.65
405 1 1 0 163.42258820040922 39.44936094898589 1.65
406 1 1 0 181.27417992295793 37.735982509778026 1.65
407 1 1 0 178.1195642583905 37.84208353607249 1.65
408 1 1 0 186.1833884948241 39.63903831808144 1.65
409 1 1 0 182.9467894249246 40.26656146121646 1.65
410 1 1 0 165.57972085317496 56.24067101143619 1.65
411 1 1 0 169.80971313839217 57.35567341763445 1.65
412 1 1 0 169.9428562994464 49.93505311914095 1.65
413 1 1 0 166.68510529640395 50.81024191987982 1.65
414 1 1 0 172.17724916803 52.1238151677438 1.65
415 1 1 0 164.33055152882991 53.647507924705614 1.65
416 1 1 0 172.139452360339 55.67689951642852 1.65
417 1 1 0 163.43533991375068 58.74970211519325 1.65
418 1 1 0 165.05605270429422 61.46272873698593 1.65
419 1 1 0 160.13778962452412 59.9515885347454 1.65
420 1 1 0 160.4008808154867 64.10682182315561 1.65
421 1 1 0 163.059936481046 64.58769208041316 1.65
422 1 1 0 170.46001770579701 60.8920486348278 1.65
423 1 1 0 167.85073821112334 62.49007285042222 1.65
424 1 1 0 191.58266390515485 41.109616697926754 1.65
425 1 1 0 188.0782230886413 41.853386886780555 1.65
426 1 1 0 202.55313048230738 39.86353876470797 1.65
427 1 1 0 2.490266394936697 39.79903243779937 1.65
428 1 1 0 101.89445976388316 40.953557730024016 1.65
429 1 1 0 98.82863024929352 35.706356697685735 1.65
430 1 1 0 99.2471412736896 39.28409237583936 1.65
431 1 1 0 107.8576477921445 44.30002232348775 1.65
432 1 1 0 105.36783485519405 46.073024246844966 1.65
433 1 1 0 102.20934850795261 44.43864205493943 1.65
434 1 1 0 113.5211718519629 42.456792331888295 1.65
435 1 1 0 111.17407343085615 45.236868079700464 1.65
436 1 1 0 116.91512424714094 43.611391792591256 1.65
437 1 1 0 144.14993363114942 43.503619188555724 1.65
438 1 1 0 147.7564833303087 43.568927759438814 1.65
439 1 1 0 171.86645030430986 39.78624731676031 1.65
440 1 1 0 168.78649523015085 41.151416798381284 1.65
441 1 1 0 176.85165509508315 40.72422838455548 1.65
442 1 1 0 174.06306323916624 41.58120234074764 1.65
443 1 1 0 8.669356232132305 4.013026592987523 1.65
444 1 1 0 9.01991643478935 7.217572006931838 1.65
445 1 1 0 11.636200587667595 2.3335371591419314 1.65
446 1 1 0 11.555520465267255 175.23372790801994 1.65
447 1 1 0 8.80637377761608 173.5479499974328 1.65
448 1 1 0 199.73721721288368 41.13657896620176 1.65
449 1 1 0 193.48417132931027 43.36015843981381 1.65
450 1 1 0 199.6529145980365 43.63835028668945 1.65
451 1 1 0 196.7304845456461 44.37702063108282 1.65
452 1 1 0 14.723436035494931 3.8062471494334753 1.65
453 1 1 0 14.963300427173255 7.097221404631192 1.65
454 1 1 0 12.226625182002964 8.829056828283962 1.65
455 1 1 0 17.49673767497653 1.9661647605175248 1.65
456 1 1 0 17.19795809398089 174.38041639058082 1.65
457 1 1 0 14.343976332098954 173.19798105161794 1.65
458 1 1 0 20.47103258752905 3.4447774188683677 1.65
459 1 1 0 20.7290258242879 6.803159343541364 1.65
460 1 1 0 17.9945953034137 8.615520940388237 1.65
461 1 1 0 23.20652311328513 1.620037732186031 1.65
462 1 1 0 22.944142961511048 174.22874320670303 1.65
463 1 1 0 19.90987285475933 172.54502604669185 1.65
464 1 1 0 26.530563216079532 6.563328115358685 1.65
465 1 1 0 26.03570341188151 3.051953262706636 1.65
466 1 1 0 23.959376154241998 8.489794509511077 1.65
467 1 1 0 116.67040290318205 47.54986737237256 1.65
468 1 1 0 118.69168204137415 49.362538795338814 1.65
469 1 1 0 31.470451890563996 3.053661889953068 1.65
470 1 1 0 34.376172034471345 2.107088802092782 1.65
471 1 1 0 29.88739264975238 6.7276884647601936 1.65
472 1 1 0 36.715513474182394 4.398461609217541 1.65
473 1 1 0 36.06931125590485 7.295467615458781 1.65
474 1 1 0 31.58702937704608 8.938225668876463 1.65
475 1 1 0 36.068524831335594 9.045380077747682 1.65
476 1 1 0 35.508643632999494 9.305484363482996 1.65
477 1 1 0 28.919848682112512 1.1582939775076966 1.65
478 1 1 0 36.08841362184059 175.03263121960902 1.65
479 1 1 0 28.816209035569713 173.80584984116243 1.65
480 1 1 0 31.450793929058694 171.87144651857304 1.65
481 1 1 0 34.91522508440209 172.54415960897038 1.65
482 1 1 0 39.74018269901831 3.278290803860254 1.65
483 1 1 0 39.585767010118346 0.04777157209532712 1.65
484 1 1 0 41.29780050629522 5.793206638190426 1.65
485 1 1 0 38.884099285657754 8.469083825392838 1.65
486 1 1 0 45.78993680167331 4.563509709045892 1.65
487 1 1 0 45.08382234796599 0.6457741709851448 1.65
488 1 1 0 43.77340336696108 6.567318238610794 1.65
489 1 1 0 41.96474247087009 174.4015089081322 1.65
490 1 1 0 51.185264268796786 4.2069678251080305 1.65
491 1 1 0 48.87132764576524 6.326845977123359 1.65
492 1 1 0 50.491546781414726 0.9922517142544169 1.65
493 1 1 0 47.47149570467585 175.11710280496584 1.65
494 1 1 0 54.21315017221033 5.323567693606947 1.65
495 1 1 0 55.26963389679256 8.499059531402361 1.65
496 1 1 0 49.780030494169495 9.62595803182658 1.65
497 1 1 0 53.15045084178328 10.681571717606666 1.65
498 1 1 0 56.67842535776136 3.305170588030501 1.65
499 1 1 0 56.19286842701047 0.2962080191275731 1.65
500 1 1 0 53.03387575407737 175.02259749060724 1.65
501 1 1 0 156.973610580942 42.02593381130602 1.65
502 1 1 0 153.88536126686847 43.19169260233178 1.65
503 1 1 0 59.661428229342896 4.648233574257855 1.65
504 1 1 0 58.80277345941287 8.086543675838882 1.65
505 1 1 0 62.13262979478521 2.6030928862806633 1.65
506 1 1 0 61.66631245641391 175.0760447263251 1.65
507 1 1 0 58.70955396022071 174.11222284539937 1.65
508 1 1 0 65.09446655400629 3.5184815788094412 1.65
509 1 1 0 65.93006537578061 6.626977211013283 1.65
510 1 1 0 63.95981008922949 9.221063263772816 1.65
511 1 1 0 60.50648281868301 9.934379229402854 1.65
512 1 1 0 162.57674200191846 42.72795221796798 1.65
513 1 1 0 159.4789958803721 43.78897828448705 1.65
514 1 1 0 67.59202404635278 0.9572615650292917 1.65
515 1 1 0 71.56896811839148 4.732188446539862 1.65
516 1 1 0 69.208629547198 7.200788000734724 1.65
517 1 1 0 70.7879614393206 1.597157643038273 1.65
518 1 1 0 64.13695152656967 172.80564899496292 1.65
519 1 1 0 67.10082635728746 173.69418561789516 1.65
520 1 1 0 74.7462092475165 5.663331923256683 1.65
521 1 1 0 75.34961428293776 9.040303015075034 1.65
522 1 1 0 70.15003926615864 10.031634943216183 1.65
523 1 1 0 73.11378287277338 10.940006480839674 1.65
524 1 1 0 76.93227121890529 3.0286135105850804 1.65
525 1 1 0 73.15199639286124 174.72508817134573 1.65
526 1 1 0 76.11906504332092 175.22540056217574 1.65
527 1 1 0 168.21606273825705 44.250269199131225 1.65
528 1 1 0 165.07338530019462 45.17888141077718 1.65
529 1 1 0 80.55639871530532 7.636281115098557 1.65
530 1 1 0 79.49613353159448 3.7513354044116425 1.65
531 1 1 0 78.59594143803739 10.290530313090347 1.65
532 1 1 0 84.98043676499624 4.570127185893182 1.65
533 1 1 0 83.47714190186703 7.7375814398416285 1.65
534 1 1 0 84.05974450152034 1.7714935979320265 1.65
535 1 1 0 81.4961844546803 1.0540021411935596 1.65
536 1 1 0 88.19282969724777 4.271636729480082 1.65
537 1 1 0 89.9220592690842 6.4928774616505445 1.65
538 1 1 0 88.45068517601817 9.194207109170573 1.65
539 1 1 0 85.21816074105254 10.140420630948558 1.65
540 1 1 0 89.18536493036794 1.1682640026216484 1.65
541 1 1 0 86.59322742504915 175.55954536623642 1.65
542 1 1 0 181.52004123867187 43.174622642944996 1.65
543 1 1 0 178.5795225733978 43.526188539989555 1.65
544 1 1 0 93.12843976163032 6.285681427557468 1.65
545 1 1 0 94.99382151465245 9.42723386815475 1.65
546 1 1 0 90.20220346760041 11.362349356317505 1.65
547 1 1 0 93.53895931368858 11.80257214939476 1.65
548 1 1 0 94.31744375523783 3.0766424172083977 1.65
549 1 1 0 92.10359849581188 0.18046572444303965 1.65
550 1 1 0 98.86016168145636 6.251188321950739 1.65
551 1 1 0 97.16227006790375 3.1145870672647726 1.65
552 1 1 0 97.88071712181258 9.354796112491643 1.65
553 1 1 0 98.74222812695739 0.32816317763236214 1.65
554 1 1 0 186.7752684306638 45.172800802588135 1.65
555 1 1 0 183.45368565059388 45.866513415617554 1.65
556 1 1 0 112.65999093918373 48.33574265388167 1.65
557 1 1 0 105.33526021869942 49.28120835721359 1.65
558 1 1 0 24.087282138157335 11.70185995127144 1.65
559 1 1 0 18.304656355414615 12.074564522018614 1.65
560 1 1 0 21.16699286020415 13.474268366932103 1.65
561 1 1 0 30.7071961844069 12.248543312752155 1.65
562 1 1 0 26.07733432091656 14.672605921402171 1.65
563 1 1 0 28.42642457803489 14.935218472919011 1.65
564 1 1 0 38.883312861088505 10.218996287681739 1.65
565 1 1 0 44.33294518637358 10.756174139578649 1.65
566 1 1 0 47.258181469490076 12.05147766471697 1.65
567 1 1 0 149.56135809491582 46.427178424612165 1.65
568 1 1 0 152.9462756459761 46.09616142967147 1.65
569 1 1 0 65.31786886549443 12.425820160721432 1.65
570 1 1 0 59.73707401642013 13.519301883408813 1.65
571 1 1 0 63.021651939684375 14.891629928789367 1.65
572 1 1 0 68.2295338710062 12.66258105044336 1.65
573 1 1 0 173.57587268621492 45.1931121693387 1.65
574 1 1 0 170.80882725946475 46.49700954610131 1.65