LAMMPS data file via write_data, version 2 Aug 2023, timestep = 223, units = metal

15708 atoms
2 atom types

8.668607138003697 196.33679304305448 xlo xhi
6.191064249896812 172.18034588546882 ylo yhi
-100 100 zlo zhi

Masses

1 28.085
2 15.999

Atoms # full

6547 1 1 0 10.251624931617789 6.484586359037093 -1.6407736839524207 0 0 0
9164 1 2 0 8.891127895961457 7.226465632704974 -2.21190484764279 0 0 0
9167 1 2 0 11.525525531202522 7.4025771077161595 -2.13314963224896 0 0 0
9173 1 2 0 10.602670345555984 9.925861953525851 -2.25305777632098 0 0 0
6551 1 1 0 11.809349514686406 8.959348595035241 -1.6404358034016948 0 0 0
9175 1 2 0 13.368379829429337 9.187231428860262 -2.1729191957576974 0 0 0
6550 1 1 0 9.912922590898221 11.316846829515404 -1.6452685368192714 0 0 0
13095 1 2 0 9.807298345239406 11.267039957141181 -1.2040070084974832e-06 0 0 0
6855 1 1 0 14.64741860352421 8.240223908126913 -1.6509611344328827 0 0 0
9664 1 2 0 14.584630682046347 6.673750305823907 -2.2293799344251948 0 0 0
6853 1 1 0 17.402884599201766 9.623531738144111 -1.650832354927267 0 0 0
9661 1 2 0 15.981122204481865 9.014165128713158 -2.244379440358634 0 0 0
9662 1 2 0 18.55083036357616 8.53280882644857 -2.1759544605045984 0 0 0
9660 1 2 0 17.60399658755195 11.195118287153408 -2.2153760480899667 0 0 0
13398 1 2 0 17.402647206667428 9.668511260014036 -3.052124274001125e-07 0 0 0
6856 1 1 0 20.093692993013725 8.185936028288314 -1.6471998125990397 0 0 0
9666 1 2 0 20.687595118528048 6.722332790014885 -2.2274542869981815 0 0 0
9665 1 2 0 20.91460441707523 9.519134116285594 -2.203358693871269 0 0 0
6857 1 1 0 22.155032996175986 10.46336798834128 -1.6496894374775892 0 0 0
9668 1 2 0 23.464721266116136 9.66177457302703 -2.257608499669142 0 0 0
6864 1 1 0 24.950013984407374 9.322127321743563 -1.6452963688688786 0 0 0
13413 1 2 0 25.021097773489537 6.4756790817016325 -5.016123168338244e-07 0 1 0
13409 1 2 0 24.939304921053065 9.266507198873505 -4.432713763125985e-07 0 0 0
13402 1 2 0 22.162309869173026 10.518114927310908 -2.36333696776885e-08 0 0 0
13401 1 2 0 20.149377222313312 8.108634606179175 -9.687797770176752e-07 0 0 0
9679 1 2 0 25.462605736323148 7.853977185918278 -2.2561937223026924 0 0 0
6868 1 1 0 25.70455077771679 6.384227321621645 -1.5123711085837386 0 1 0
9691 1 2 0 29.35824927463447 7.224571311874516 -2.2993292118614197 0 0 0
9678 1 2 0 25.854959649802286 10.61470122376441 -2.138126593334051 0 0 0
9681 1 2 0 28.345461291720408 9.902809737776247 -2.3000078059169824 0 0 0
6872 1 1 0 29.22333417553838 8.716127854414767 -1.5397339903643543 0 0 0
9692 1 2 0 30.709216690481416 9.409926102140519 -1.4989017653210408 0 0 0
6865 1 1 0 27.36484685572221 11.083046295490954 -1.6463259303068845 0 0 0
13417 1 2 0 28.601496970842938 8.471677807967339 -1.6969643766023518e-06 0 0 0
9842 1 2 0 32.30072959512506 7.360037580861323 -2.188892792741003 0 0 0
6968 1 1 0 33.40502762324724 6.236704019678874 -1.6499071735894728 0 0 0
9718 1 2 0 34.80652513300931 6.805624310374245 -2.3270471970417765 0 0 0
6963 1 1 0 32.25815882826574 8.874892111385648 -1.523474517978203 0 0 0
9839 1 2 0 33.05544221146421 10.08593549191729 -2.333929143556121 0 0 0
9716 1 2 0 36.09868957664288 10.470771362108616 -2.2093438999104067 0 0 0
6962 1 1 0 33.0477287162753 11.600139208131935 -1.6530597528142845 0 0 0
6886 1 1 0 36.26046535239203 6.904441333255095 -1.5688943693083803 0 0 0
9715 1 2 0 37.21830800671909 8.080772402108026 -2.26174289057806 0 0 0
6877 1 1 0 40.204285451187395 7.280922332748572 -1.485377272811173 0 0 0
9699 1 2 0 40.573503468839505 8.687454385853194 -2.2731791193304747 0 0 0
6885 1 1 0 37.381579507276044 9.609775585371251 -1.6365676056036593 0 0 0
9701 1 2 0 38.69525940327873 10.483585636090055 -2.1421559726441894 0 0 0
6876 1 1 0 40.24782694097819 10.189087206644347 -1.643243179265608 0 0 0
9700 1 2 0 41.23623388555755 11.321293283822397 -2.331218937656492 0 0 0
13422 1 2 0 39.470883078224006 7.611647097749274 -1.249611319659297e-06 0 0 0
13421 1 2 0 40.44662104897375 10.18042544472109 -1.8812164816673555e-06 0 0 0
9697 1 2 0 41.59530910756764 6.5099159644845175 -1.2518969371593192 0 0 0
6875 1 1 0 43.193598018501184 6.434405843071493 -1.503428111641797 0 1 0
9694 1 2 0 43.68632777532312 7.8426000615649 -2.25217878158518 0 0 0
6874 1 1 0 44.77557774777731 8.948658827849114 -1.6356821115520357 0 0 0
9695 1 2 0 44.81235206947029 10.496311240339542 -2.2671374972676137 0 0 0
9696 1 2 0 46.1869927206429 8.276860000704186 -2.207516888166403 0 0 0
13426 1 2 0 47.21058549796307 9.25948843682344 -3.5752813592620056e-06 0 0 0
13420 1 2 0 43.93562781050628 6.251557719566258 -3.4645083019576965e-06 0 1 0
13419 1 2 0 44.48307501860568 9.06976058573354 -3.7713892159221283e-06 0 0 0
9706 1 2 0 48.57136609012571 7.4640246888059805 -1.5620512087621574 0 0 0
6880 1 1 0 49.989727782932135 6.638640573096849 -1.5236774288996882 0 0 0
9708 1 2 0 51.18074095408471 7.4071587095065246 -2.3249775407704156 0 0 0
6881 1 1 0 47.596140974882715 8.76637207236405 -1.532094913069584 0 0 0
9709 1 2 0 48.21011880447515 10.104296580679401 -2.305712548810819 0 0 0
6889 1 1 0 49.58098568076635 10.763376062268069 -1.6513933842954625 0 0 0
6888 1 1 0 51.79610474031748 8.787416258726855 -1.65394322988662 0 0 0
9720 1 2 0 50.90285585932277 9.999864129739906 -2.284820769741017 0 0 0
13433 1 2 0 51.808084868003554 8.906982620171126 -1.0694871054612912e-06 0 0 0
13434 1 2 0 49.58488562109511 10.621898859399511 3.072943077546798e-09 0 0 0
9721 1 2 0 53.32373354606153 8.721186947097134 -2.2510440503763496 0 0 0
6890 1 1 0 54.42580121612867 7.6346208318012625 -1.6410648870250217 0 0 0
9723 1 2 0 55.800762711132656 8.456567388960165 -2.0507891194806187 0 0 0
6891 1 1 0 55.97950797803621 10.061291717162065 -1.6285320188806072 0 0 0
9726 1 2 0 57.5363748042902 10.234696694604658 -2.1820463094349107 0 0 0
9725 1 2 0 54.938699344437985 11.14162946790672 -2.3272676622959043 0 0 0
13435 1 2 0 54.26007581187971 7.510730513019701 -4.549543185899679e-06 0 0 0
13436 1 2 0 55.82595049099786 10.294031306424172 -4.790113677079991e-06 0 0 0
13443 1 2 0 58.34248773016235 8.881851623632848 -1.9516370369472977e-06 0 0 0
6898 1 1 0 58.59221366409698 9.048043123258788 -1.6374474792132376 0 0 0
9737 1 2 0 58.64318986248773 7.562386717291899 -2.3607928202139306 0 0 0
9738 1 2 0 60.0615632472337 9.673113943123276 -2.0304877893194724 0 0 0
6901 1 1 0 60.40724337551486 11.230336658736292 -1.6433623172959029 0 0 0
9740 1 2 0 61.887703898844364 11.449673609485464 -2.307078071788985 0 0 0
6900 1 1 0 63.24253337536164 10.778937259768357 -1.6509928555921571 0 0 0
9742 1 2 0 63.42725380813524 9.224992738908929 -2.2026195793169903 0 0 0
13444 1 2 0 59.13139279497069 6.275382653366057 -3.3023743288194037e-07 0 1 0
9749 1 2 0 64.1103337758068 6.573382323604729 -2.250148980238995 0 0 0
6905 1 1 0 64.50690390061955 8.080927353181973 -1.647350294797547 0 0 0
9750 1 2 0 65.96939777193182 8.633141300428305 -2.2076980178586534 0 0 0
6911 1 1 0 67.14416215097202 9.670206507134974 -1.6500482300372048 0 0 0
9759 1 2 0 68.5115566130779 8.992184922658035 -2.249922438923852 0 0 0
9757 1 2 0 67.12661208488059 11.216004312026465 -2.2684049892730744 0 0 0
13450 1 2 0 64.5257487911903 7.9830258921277775 -1.0692543236287164e-06 0 0 0
13456 1 2 0 67.07204716749636 9.714186143575336 -1.4453021862390071e-06 0 0 0
9765 1 2 0 70.07624196473004 6.898750242994564 -2.2658096905702747 0 0 0
6915 1 1 0 69.93567382611779 8.450722721569942 -1.6516288722068753 0 0 0
9764 1 2 0 72.90920943078483 8.00439053164589 -2.2269116450985282 0 0 0
6920 1 1 0 74.08279828044982 7.006533704375083 -1.6408239873626693 0 0 0
9762 1 2 0 71.02728957003522 9.63742767395442 -2.126864731123242 0 0 0
6914 1 1 0 72.62231519139702 9.543444633498153 -1.6468142419891054 0 0 0
9763 1 2 0 73.63874768084844 10.719363960649355 -2.265414308085242 0 0 0
13465 1 2 0 73.96541953252128 6.837747707318528 -1.3380906024671162e-07 0 0 0
9774 1 2 0 75.4179428362788 7.913596532728845 -2.019577377717177 0 0 0
6925 1 1 0 76.96045238175881 7.4711848847408975 -1.6302758157730115 0 0 0
9779 1 2 0 78.01978106146746 8.523712893762793 -2.2989433094855514 0 0 0
6923 1 1 0 79.24577494574328 9.432947320133318 -1.651180456416806 0 0 0
9778 1 2 0 79.02633245326963 10.964597412591589 -2.1965495453574775 0 0 0
9784 1 2 0 80.0794535330627 6.447872732025764 -2.0689778622007333 0 0 0
9767 1 2 0 76.35840091222967 11.36284174578031 -2.188813088486281 0 0 0
9780 1 2 0 80.74233070202237 8.962302172054997 -2.1924299691198863 0 0 0
6926 1 1 0 81.29411923701366 7.498228379088669 -1.6362059197135599 0 0 0
9783 1 2 0 82.75008173139378 7.037996293021951 -2.2707046350418207 0 0 0
6927 1 1 0 84.24832659306593 7.423429480827415 -1.6500899919543246 0 0 0
9785 1 2 0 84.42152949773414 9.012486720381961 -2.1184707419774664 0 0 0
9787 1 2 0 85.36730197450241 11.54255237960308 -2.219009233532368 0 0 0
6929 1 1 0 85.68461532493251 9.983460038347769 -1.6339977819417602 0 0 0
13472 1 2 0 84.29817422660754 7.368552017319572 -4.994447692832928e-07 0 0 0
13474 1 2 0 85.84559462001823 10.170827026485302 -1.7623583929416198e-07 0 0 0
9786 1 2 0 85.36977839737371 6.290083973424011 -2.1882253347233123 0 1 0
9805 1 2 0 89.20461028753421 7.146449569656947 -2.1785261013250508 0 0 0
6938 1 1 0 88.49581272569439 8.602549334350241 -1.6467154495473815 0 0 0
9790 1 2 0 86.92921042098206 8.955346189765537 -2.1359246768953755 0 0 0
9801 1 2 0 89.17955298477422 9.990443282831402 -2.2655249513999545 0 0 0
6936 1 1 0 90.01509385593334 11.266686475942581 -1.6433762293858132 0 0 0
13483 1 2 0 88.58597414265161 8.531614802095898 -4.368569569453144e-07 0 0 0
13481 1 2 0 89.85371728961834 11.31257429832784 8.91221978665025e-08 0 0 0
9802 1 2 0 91.51039572851394 10.808309976492522 -2.167730368155951 0 0 0
9812 1 2 0 93.97383308411291 7.849044729917833 -2.258127544508192 0 0 0
6943 1 1 0 94.73456851453241 9.175348361233734 -1.647339526046542 0 0 0
9808 1 2 0 94.10892842469892 10.577649071087139 -2.2740459651193397 0 0 0
9813 1 2 0 96.29312237835346 9.239192654910875 -2.1716386336562943 0 0 0
6940 1 1 0 92.8962319289255 11.483145659389363 -1.6363061317941154 0 0 0
13485 1 2 0 93.01119508060951 11.445560863135714 -9.300927907573805e-07 0 0 0
6944 1 1 0 93.37136646413619 6.4293493075683035 -1.650816028670044 0 1 0
9814 1 2 0 91.8104009856582 6.3077931139163725 -2.19762302899802 0 1 0
9821 1 2 0 100.08271065199649 7.1306229292698475 -2.247504714219367 0 0 0
6947 1 1 0 97.49825086413476 10.246491712450414 -1.6485079092477744 0 0 0
6949 1 1 0 100.09308002860372 8.677966546604772 -1.648705204297534 0 0 0
9819 1 2 0 98.81514328826792 9.501160160229816 -2.2734406160002907 0 0 0
9386 1 2 0 101.3700031925161 9.552737393165511 -2.228229616668341 0 0 0
6673 1 1 0 102.35047079376119 10.741773194434574 -1.64314718780578 0 0 0
9174 1 2 0 10.975683674938836 12.45977182360411 -2.17479747346324 0 0 0
9376 1 2 0 10.595050558866047 15.029705441724696 -2.3168358961426496 0 0 0
6668 1 1 0 11.600634141666061 13.881788739550826 -1.6532785320717354 0 0 0
9379 1 2 0 13.12340889618606 14.026823102238662 -2.2748651874517645 0 0 0
6667 1 1 0 9.958878726474534 16.298393400649484 -1.4909226150481412 0 0 0
13212 1 2 0 9.420753970836127 15.773525400405987 -3.26323497826502e-07 0 0 0
9377 1 2 0 8.754883274781044 17.066327534146165 -2.330466627072624 1 0 0
13213 1 2 0 11.644105812963518 13.986476876214482 -3.269837270356324e-07 0 0 0
9417 1 2 0 15.586069916533638 12.995251016144223 -2.1584169203837638 0 0 0
6854 1 1 0 17.144669327661653 12.699782389410244 -1.646597598022262 0 0 0
6695 1 1 0 14.639201945633427 14.255869796647312 -1.6480961535977279 0 0 0
6859 1 1 0 19.22703108996293 14.99173309529299 -1.6485086008726735 0 0 0
9663 1 2 0 18.008676853292798 14.009146779451838 -2.216876211526723 0 0 0
9415 1 2 0 15.28686028894572 15.68988220593969 -2.2074366823849187 0 0 0
9671 1 2 0 19.200434739255595 16.565704313137854 -2.23009786349573 0 0 0
6694 1 1 0 14.929003832414798 17.212558537357545 -1.6531107647418253 0 0 0
13239 1 2 0 15.01683658301058 17.17528815093983 3.4468347076932225e-07 0 0 0
9667 1 2 0 22.08421897379981 12.01966784006289 -2.2335736392399554 0 0 0
9669 1 2 0 20.573670654293906 14.236084570109027 -2.2220925494387678 0 0 0
6858 1 1 0 21.965556434560174 13.576493658996599 -1.6475790406411992 0 0 0
9670 1 2 0 23.109643423470217 14.615586880090742 -2.2351877905503565 0 0 0
6867 1 1 0 24.41333503098187 15.447286982787 -1.649306928395749 0 0 0
9684 1 2 0 24.46936390439442 17.014052171385718 -2.225621879352486 0 0 0
13412 1 2 0 24.39153420014881 15.501975317929661 -2.86201469733312e-07 0 0 0
13403 1 2 0 22.00989615502743 13.527830221168966 8.98957110851912e-07 0 0 0
9680 1 2 0 27.619588320917885 12.623713927688579 -2.2344653453983563 0 0 0
9682 1 2 0 25.65418488080095 14.513593078575617 -2.216584611411054 0 0 0
6866 1 1 0 27.15050123216502 14.119856153723932 -1.6481845085336733 0 0 0
9683 1 2 0 28.06129513581368 15.397526465293558 -2.1846990517543508 0 0 0
9843 1 2 0 30.567897266475025 14.889452650131428 -2.296524608535185 0 0 0
6965 1 1 0 29.515168015625154 15.972957809591982 -1.6487741360250154 0 0 0
9840 1 2 0 31.788181867461496 12.561946267019769 -2.144938323359394 0 0 0
9841 1 2 0 34.38647820864441 12.430031636150394 -2.176292213113912 0 0 0
6967 1 1 0 35.88552382734404 12.005050744542615 -1.6440157572943976 0 0 0
6964 1 1 0 31.869076376710574 14.145882772258128 -1.6482281551639364 0 0 0
9844 1 2 0 33.196836429403874 14.896012587250064 -2.2756080015586058 0 0 0
6973 1 1 0 34.346037560706264 15.879478689715311 -1.6481392063113522 0 0 0
9853 1 2 0 35.825257663234076 15.452624852751242 -2.222134028509247 0 0 0
13518 1 2 0 34.33009011954645 15.859869682916525 -2.414931826906668e-06 0 0 0
9846 1 2 0 37.02770618185568 13.043850375451237 -2.2332474189420637 0 0 0
6972 1 1 0 37.10679479073401 14.590628407400013 -1.6486822817628353 0 0 0
9854 1 2 0 38.45542714478901 15.281689390175515 -2.296154916459708 0 0 0
6976 1 1 0 39.24270187556862 16.571343591056603 -1.6421439987535442 0 0 0
9857 1 2 0 40.810790431130904 16.606332132860512 -2.1422889590168483 0 0 0
9704 1 2 0 41.33908342560679 14.036806331942326 -2.223272643707928 0 0 0
13423 1 2 0 41.709448661257724 12.543394754943913 -2.6669750145602554e-06 0 0 0
13521 1 2 0 39.14093196567378 16.486914259528923 -6.323559409330384e-07 0 0 0
6878 1 1 0 41.96867407151517 12.627002078031344 -1.622742156969074 0 0 0
9703 1 2 0 43.56993020398822 12.767472386421693 -1.97768665861602 0 0 0
6879 1 1 0 44.996736989019254 12.02414047232521 -1.6150348075604721 0 0 0
6975 1 1 0 41.90937055248979 15.489758024841304 -1.6451588143757747 0 0 0
9705 1 2 0 46.16000705545016 13.056124070712164 -2.2330286474643315 0 0 0
6979 1 1 0 46.75144211037292 14.516485748457013 -1.6503463371753997 0 0 0
9858 1 2 0 43.33770705590159 15.957554855604135 -2.2989660210598433 0 0 0
7010 1 1 0 44.64052477403103 16.73874640477534 -1.6482771101899043 0 0 0
9864 1 2 0 45.93162164971203 15.860211997616533 -2.1797641361628997 0 0 0
13520 1 2 0 42.05558889668968 15.42642789180091 -2.7511411946058026e-06 0 0 0
9722 1 2 0 49.711065499955836 12.333379066893306 -2.115573997911705 0 0 0
9727 1 2 0 52.375153912943205 12.157324216736093 -2.19221753205059 0 0 0
9863 1 2 0 48.27768452756 14.782451709220172 -2.234560565495318 0 0 0
9728 1 2 0 50.972095135811614 14.638119826876085 -2.1888948120564273 0 0 0
6892 1 1 0 51.12436592891692 13.084963536089342 -1.6369658956308344 0 0 0
6980 1 1 0 49.64683031058616 15.50519373482551 -1.6504653244340557 0 0 0
13525 1 2 0 49.570841306729996 15.582205847764452 -2.641939154799454e-06 0 0 0
9865 1 2 0 49.86253915444214 17.020710773988014 -2.258612151297513 0 0 0
13437 1 2 0 51.23384458754562 13.136740248857631 6.407513871862e-08 0 0 0
6893 1 1 0 53.94319562547788 12.283862863127675 -1.6594706537077275 0 0 0
9729 1 2 0 54.33428846099579 13.726220858347112 -2.3643173046802763 0 0 0
6983 1 1 0 54.60981425627695 15.077783384243487 -1.4868448393939915 0 0 0
9869 1 2 0 56.240838154338796 14.994801437365005 -1.3002024458653032 0 0 0
9870 1 2 0 53.98412812309083 16.39444775609074 -2.25841884313953 0 0 0
6984 1 1 0 57.594801517488456 15.898375268207513 -1.481703506221221 0 0 0
9871 1 2 0 57.13707385636852 17.212043327073445 -2.3561859572596453 0 0 0
13529 1 2 0 58.251689208006574 16.34770245634652 -3.2485565253700016e-06 0 0 0
9743 1 2 0 59.34382041547655 12.33996000007992 -2.2790268713098003 0 0 0
9747 1 2 0 58.680635708436256 15.002617745212298 -2.34918047831157 0 0 0
6903 1 1 0 59.47412644074268 13.809463805962011 -1.5261704597563293 0 0 0
9746 1 2 0 61.098207959556845 14.095364091686402 -1.4900569140695434 0 0 0
6904 1 1 0 62.20322441036231 15.31016817632772 -1.5210793783118919 0 0 0
9744 1 2 0 63.53245155916858 14.653779995372586 -2.2907148775511224 0 0 0
9748 1 2 0 61.41587189489107 16.619462704884278 -2.1919837346624704 0 0 0
13448 1 2 0 58.81520355345528 13.685220426303808 -2.4739858397589486e-06 0 0 0
9741 1 2 0 64.36001918932108 11.890157288033803 -2.162359332550471 0 0 0
6902 1 1 0 64.52016618096361 13.470363811822844 -1.6398082580260458 0 0 0
9745 1 2 0 66.08348174591406 13.775647673639263 -2.0911704627389587 0 0 0
6910 1 1 0 67.31683422506296 12.73926516001681 -1.6415168441796057 0 0 0
9758 1 2 0 68.70882663091432 13.490118073492498 -2.1728909790338897 0 0 0
6917 1 1 0 69.06179313554455 15.03300337618214 -1.6481750388854992 0 0 0
9769 1 2 0 67.82708883681903 16.00571462844462 -2.1942546981841735 0 0 0
13462 1 2 0 69.1369617946681 15.09924641535003 -1.8800861201799635e-07 0 0 0
13455 1 2 0 67.35378210919087 12.596488563676894 -3.9297657859080965e-07 0 0 0
6916 1 1 0 74.82043612843562 11.731284527051443 -1.6467766929557168 0 0 0
9766 1 2 0 74.59182666577621 13.270161250450284 -2.2041101659017164 0 0 0
6918 1 1 0 74.63209332638995 14.82468770325607 -1.647693732798712 0 0 0
9768 1 2 0 70.53476722688923 15.487317993747817 -2.2594960517237377 0 0 0
6919 1 1 0 71.90033371352278 16.20130652094228 -1.6489833183902365 0 0 0
9770 1 2 0 73.21424482353625 15.410180101082304 -2.2423695908913697 0 0 0
13463 1 2 0 74.68862628869704 14.853900040747467 -3.639326485143305e-07 0 0 0
6924 1 1 0 77.82006290379022 11.950392814200212 -1.6463680517910835 0 0 0
9781 1 2 0 78.2946360793624 13.41754261094104 -2.25045977353181 0 0 0
6930 1 1 0 79.35733842106214 14.543520774507677 -1.6410847250078437 0 0 0
9771 1 2 0 75.91255642129701 15.714810470720497 -2.2423339384916914 0 0 0
9792 1 2 0 78.67339309547091 15.976521043179615 -2.104978882295393 0 0 0
6994 1 1 0 77.20110699123914 16.58644957538934 -1.6419567299793172 0 0 0
13475 1 2 0 79.44335206025778 14.406076344099276 -2.607226627451548e-07 0 0 0
13539 1 2 0 77.05804089037251 16.622038750043515 -6.566439507672395e-07 0 0 0
6928 1 1 0 84.91768281204456 13.0770400757732 -1.6493354099930433 0 0 0
9791 1 2 0 80.90073497236502 14.469097597490919 -2.244232958296851 0 0 0
6931 1 1 0 82.40474664897322 14.88926267858662 -1.6511512535998698 0 0 0
9788 1 2 0 83.4287212925157 13.664356526942553 -2.1675208415790004 0 0 0
9793 1 2 0 82.77983912064416 16.43695898180282 -2.193715134353429 0 0 0
13473 1 2 0 84.92302908187003 12.99693969079146 -1.0165258517405781e-07 0 0 0
13476 1 2 0 82.41654436358586 14.922171043531995 -1.3675591398490433e-06 0 0 0
9789 1 2 0 85.97799224344328 14.226860355920374 -2.2170727288490344 0 0 0
9800 1 2 0 89.66852960305582 12.795169653951623 -2.219555001863663 0 0 0
9803 1 2 0 88.41812034539969 15.164893141797936 -2.1969087528967326 0 0 0
6939 1 1 0 86.9020186212706 15.485493046146564 -1.6451957560705712 0 0 0
6937 1 1 0 89.75068089714215 14.367745469793322 -1.6482405130698548 0 0 0
9804 1 2 0 90.9722027119714 15.328847884601458 -2.2436961566084315 0 0 0
9806 1 2 0 86.52830983330463 17.000083199481033 -2.224116788196064 0 0 0
13482 1 2 0 89.83573614899291 14.319887294715045 1.0100853000480267e-06 0 0 0
9807 1 2 0 92.85516253767516 13.063257177680393 -2.1254667319303344 0 0 0
9809 1 2 0 93.62074614114401 15.643260446503 -2.1742180588310247 0 0 0
6941 1 1 0 94.02752704402764 14.132648905163819 -1.6386103497433953 0 0 0
9810 1 2 0 95.39575495077268 13.522442357891734 -2.3041487736709563 0 0 0
6948 1 1 0 96.88611792199234 13.242008719467277 -1.648247270397894 0 0 0
6942 1 1 0 92.17432420241089 16.30215364079745 -1.648045638029603 0 0 0
9899 1 2 0 96.66820340343448 17.12082332626982 -2.179572188391137 0 0 0
13486 1 2 0 94.18584738777831 14.193091114763183 -1.0360000355068207e-07 0 0 0
13487 1 2 0 92.08577080945471 16.332404482951862 -5.968915646963651e-07 0 0 0
9818 1 2 0 97.44242930934459 11.80131808997622 -2.2432989653171203 0 0 0
9384 1 2 0 102.0131856102693 12.269935099591061 -2.2106047441565218 0 0 0
9820 1 2 0 97.76450830174757 14.530513526140343 -2.1866996428229633 0 0 0
9385 1 2 0 101.84395185091938 14.993142233536128 -2.2388099393453142 0 0 0
7002 1 1 0 97.89295387644367 16.09643784387108 -1.6478261769953695 0 0 0
9453 1 2 0 99.40911082473667 16.463692224635054 -2.217315595026918 0 0 0
6718 1 1 0 100.96574641973042 16.294430209174326 -1.6459207023030151 0 0 0
13547 1 2 0 97.85866411565523 16.144122866875293 6.467497952741067e-07 0 0 0
13258 1 2 0 8.677127305659333 21.36130169968519 -2.196818014377881e-07 1 0 0
9378 1 2 0 11.059743305750253 17.488082127574305 -1.2958778142020058 0 0 0
9413 1 2 0 13.457352887047959 17.62386312449455 -2.2914148990319276 0 0 0
6693 1 1 0 12.315213245326923 18.492721209859482 -1.4900659528654585 0 0 0
9414 1 2 0 11.826181517529122 19.83903730762528 -2.3030623375365398 0 0 0
9444 1 2 0 10.23283682807208 22.10942179600889 -2.1368147516726537 0 0 0
6714 1 1 0 11.63635292746154 21.3511925679686 -1.6496981572190743 0 0 0
9446 1 2 0 12.94108984628057 22.16553352063426 -2.2149605395658556 0 0 0
9380 1 2 0 8.958327141141403 19.86913754654328 -2.275643243324571 1 0 0
6713 1 1 0 8.80539638681895 21.39819859152502 -1.6484893803407341 1 0 0
6957 1 1 0 19.471398559598367 18.1122752039527 -1.6432947521630272 0 0 0
9416 1 2 0 15.921433161258053 18.367000776019452 -2.2778177346075905 0 0 0
6740 1 1 0 16.82294504531786 19.593900789883534 -1.6411770429062567 0 0 0
9488 1 2 0 18.345774804953297 19.2160567720769 -2.1423457659324288 0 0 0
9487 1 2 0 16.40082903721765 21.078765006079106 -2.2503319362589598 0 0 0
6741 1 1 0 16.429476241998877 22.633134799539175 -1.650512459855011 0 0 0
13286 1 2 0 16.428660195929247 22.579419828109234 -4.3891268847483684e-07 0 0 0
9833 1 2 0 20.841419375980948 18.846154636717323 -2.223563180447096 0 0 0
7004 1 1 0 21.846311232363043 20.04220120466044 -1.6477684588141455 0 0 0
9900 1 2 0 23.303326563366483 19.51579610380463 -2.2079862391354466 0 0 0
7003 1 1 0 24.539903838079322 18.57951366087799 -1.6480780386134606 0 0 0
9902 1 2 0 21.61228615765366 21.601952063223553 -2.20953727744908 0 0 0
13548 1 2 0 24.55747501442964 18.520590448200366 -3.9439558759435803e-08 0 0 0
9845 1 2 0 29.92355858412287 17.45986313457519 -2.243205193924871 0 0 0
9901 1 2 0 25.841165313526275 19.411371770887534 -2.238365472397508 0 0 0
9903 1 2 0 28.385357861894466 19.573106362322125 -2.249838636054174 0 0 0
7005 1 1 0 29.792520316789492 19.001874637329813 -1.6487752117927417 0 0 0
7006 1 1 0 27.0715447107887 20.34133673619598 -1.6475472981974024 0 0 0
9905 1 2 0 27.186442767039022 21.88731844387569 -2.231861173749671 0 0 0
13550 1 2 0 29.831683808553503 18.974662982524755 7.408457811534299e-07 0 0 0
9904 1 2 0 30.935112099112597 20.03123891648145 -2.243852125759013 0 0 0
9855 1 2 0 34.06109485498225 17.3840177244442 -2.2619860001009213 0 0 0
9947 1 2 0 33.541335018986835 19.962934825501332 -2.257259496007355 0 0 0
7036 1 1 0 34.53853941512251 18.825409273900284 -1.647123438087994 0 0 0
9948 1 2 0 36.02762398314248 19.26484161705382 -2.224545182993326 0 0 0
7037 1 1 0 32.273436312390224 20.794319714346784 -1.64713824617993 0 0 0
9949 1 2 0 32.55628143305183 22.296240739880023 -2.2598474158682533 0 0 0
9953 1 2 0 36.11145852320313 22.054957495367766 -2.1323758400216772 0 0 0
13581 1 2 0 34.4808545220613 18.78055275281111 -1.316047218545663e-06 0 0 0
13582 1 2 0 32.19621893813386 20.84179962659121 -3.473568941568224e-07 0 0 0
9951 1 2 0 38.347513531090456 20.60852287589713 -2.1710971244867228 0 0 0
9859 1 2 0 38.64235072973132 17.997903391287135 -2.212263244542872 0 0 0
7039 1 1 0 39.33273333344819 19.392726125881257 -1.6453706327185385 0 0 0
9952 1 2 0 40.863770851196115 19.659233272378824 -2.198043192204746 0 0 0
7040 1 1 0 36.77684711172659 20.61640448156194 -1.6434431462448258 0 0 0
7073 1 1 0 41.77534196643904 20.939131162191018 -1.6470908852258213 0 0 0
13585 1 2 0 36.729461975327986 20.55901532679598 4.833417297878577e-07 0 0 0
10001 1 2 0 41.097055060862374 22.335895353863325 -2.235960946044773 0 0 0
13584 1 2 0 39.39802808074897 19.359452935843183 -5.494615751203182e-07 0 0 0
9911 1 2 0 44.668361158378424 18.281507067031477 -2.2466098143294233 0 0 0
7044 1 1 0 44.599402177795994 19.825316640508383 -1.6515429078587274 0 0 0
9960 1 2 0 43.29438542586777 20.67483092711076 -2.241006424592695 0 0 0
9959 1 2 0 45.957503837376315 20.571392201125608 -2.229360776240021 0 0 0
7046 1 1 0 46.774857893386105 21.881667067647356 -1.6462139330612582 0 0 0
13591 1 2 0 46.83676099434725 21.831953749510106 1.1126403222681807e-07 0 0 0
13589 1 2 0 44.55206409601039 19.809048038480196 -2.6603609112538187e-07 0 0 0
9913 1 2 0 49.785699548016744 19.59636660737954 -2.221772742977174 0 0 0
7011 1 1 0 50.66922798348603 18.32864671757955 -1.6512411637949518 0 0 0
9912 1 2 0 52.223873350226974 18.438716882871255 -2.2486798547785787 0 0 0
9961 1 2 0 48.32849758421984 21.855335429942524 -2.2455071294735918 0 0 0
7045 1 1 0 49.702954503989474 21.140074153175732 -1.6468123476658534 0 0 0
9962 1 2 0 51.095137995614955 21.864010133862784 -2.1682509739629556 0 0 0
13590 1 2 0 49.66531389110573 21.17591408773611 -3.489016390036444e-07 0 0 0
7012 1 1 0 53.665734817714096 17.91312085131046 -1.6508703778190867 0 0 0
9914 1 2 0 54.926136931132646 18.874132704686694 -2.1819605795871477 0 0 0
7016 1 1 0 56.46963338167225 18.562849602616513 -1.6525351037380902 0 0 0
9919 1 2 0 57.513874758526306 19.713118013239164 -2.1598946280777724 0 0 0
7074 1 1 0 57.84182118649713 22.783139209580582 -1.6472299378296704 0 0 0
7017 1 1 0 59.058952477421315 20.070096022199678 -1.6379540709670781 0 0 0
6985 1 1 0 61.55619834648821 18.193142535208317 -1.644613010434353 0 0 0
9873 1 2 0 60.32958899889333 19.171387326167988 -2.2634637164371827 0 0 0
9872 1 2 0 63.065961879130505 18.580191695131703 -2.2235824442071834 0 0 0
9920 1 2 0 58.99204499424506 21.65244525101721 -2.1412386883618932 0 0 0
13562 1 2 0 59.168567519938286 19.94264771253033 -4.4944979742296574e-07 0 0 0
9971 1 2 0 63.39822557244608 22.551365018594876 -2.213160206022733 0 0 0
13530 1 2 0 61.48779049635173 18.341136377911003 -9.078714530282944e-07 0 0 0
6986 1 1 0 67.35081798867421 17.48994094301946 -1.6439398924152253 0 0 0
6987 1 1 0 64.60626683205766 18.785873651429522 -1.644749531566426 0 0 0
9876 1 2 0 64.98792995033544 20.277877670337634 -2.2472144463750245 0 0 0
9874 1 2 0 65.80836006900499 17.78354613392944 -2.225364694571586 0 0 0
9875 1 2 0 68.5599322569887 18.50038223812363 -2.180689341712469 0 0 0
7021 1 1 0 69.34527040743062 19.86188175538385 -1.6548235794430524 0 0 0
7051 1 1 0 64.73969844772232 21.777791877964457 -1.6318996710112847 0 0 0
9970 1 2 0 66.09929886156704 22.607271972766494 -2.1343532184285867 0 0 0
7052 1 1 0 67.56079855527749 22.15667423126753 -1.4865346842815046 0 0 0
9927 1 2 0 68.47054273397865 21.09059799459314 -2.3502602890100923 0 0 0
13532 1 2 0 64.57660453928865 18.696183570740246 3.0221337960175564e-07 0 0 0
13531 1 2 0 67.29139567183888 17.561300438537167 -1.003950951263961e-06 0 0 0
13597 1 2 0 67.24131145534716 21.461557389633075 7.024747494878619e-08 0 0 0
9772 1 2 0 72.06817640609529 17.729607107565442 -2.237585316828381 0 0 0
9926 1 2 0 70.90835202079003 20.05287128786052 -2.2000341235028844 0 0 0
7022 1 1 0 72.26807211587544 19.256749229590955 -1.6486481313494104 0 0 0
9928 1 2 0 73.70303518259173 19.865124715060105 -2.2316632532684397 0 0 0
7053 1 1 0 74.89685203321625 20.88237786710659 -1.6485796465567872 0 0 0
9973 1 2 0 74.48252482943892 22.372658816032416 -2.219851964285018 0 0 0
13567 1 2 0 72.3330878280144 19.2652585035192 -3.6863992873692407e-07 0 0 0
13566 1 2 0 69.41985500753535 19.867656981686572 -1.3097202670506822e-07 0 0 0
9931 1 2 0 76.44580838293015 20.57290784767788 -2.1896372877555703 0 0 0
9887 1 2 0 77.25748538568872 18.122432460981642 -2.247621820870849 0 0 0
7024 1 1 0 77.70172367708179 19.60914451673014 -1.650522353620164 0 0 0
9930 1 2 0 79.21257200855675 20.099397342189807 -2.1991969687420507 0 0 0
7000 1 1 0 82.95993650474827 18.015437389459443 -1.6483444511044087 0 0 0
7025 1 1 0 80.79558560210464 20.293990066906996 -1.649830087790923 0 0 0
9897 1 2 0 81.74484916801525 19.025671606181433 -2.204850888168492 0 0 0
9896 1 2 0 84.42539034834041 18.643215700579596 -2.165653110438516 0 0 0
9932 1 2 0 81.45729221758063 21.741826394302358 -2.1784139708543218 0 0 0
13570 1 2 0 80.77759216990079 20.28427585658922 -1.0614940560076045e-07 0 0 0
7001 1 1 0 86.01110044261209 18.48256999495759 -1.6486188890147642 0 0 0
9898 1 2 0 87.00930444569364 19.723051318387554 -2.188562848593784 0 0 0
9978 1 2 0 86.43762151030619 22.335852353388077 -2.151174913495699 0 0 0
7057 1 1 0 87.60577032104564 21.212398890535372 -1.6497414843595872 0 0 0
9979 1 2 0 89.2294907302499 21.472130517950546 -2.15527655000443 0 0 0
7061 1 1 0 90.86254461437159 21.698434192369017 -1.64918713678918 0 0 0
9811 1 2 0 92.13014075152691 17.859960751226957 -2.210482271710227 0 0 0
7026 1 1 0 92.93019197433631 19.220349086786747 -1.6493305832661607 0 0 0
9933 1 2 0 94.54722619770008 19.07959812766983 -2.17544546922347 0 0 0
7027 1 1 0 96.09164746005271 18.62196473036765 -1.6487062211404526 0 0 0
9934 1 2 0 91.96066600595441 20.504314433319824 -2.1698807909054167 0 0 0
9451 1 2 0 101.65398762811085 17.709961904948642 -2.164037689882815 0 0 0
9569 1 2 0 97.23965994710198 19.706411933510804 -2.196148980167713 0 0 0
9452 1 2 0 100.03003076464788 20.00538206999895 -2.214269780257191 0 0 0