ITEM: TIMESTEP
1925
ITEM: NUMBER OF ATOMS
15288
ITEM: BOX BOUNDS pp pp pp
0.0000000000000000e+00 2.0189580775515026e+02
0.0000000000000000e+00 1.7626153987499188e+02
-1.0000000000000000e+02 1.0000000000000000e+02
ITEM: ATOMS id type element x y z v_uncoordination
1 1 Si 149.48 47.2347 1.62534 0
2 1 Si 146.144 46.1375 1.63813 0
3 1 Si 152.463 45.5558 1.62751 0
4 1 Si 147.909 39.9959 1.64412 0
5 1 Si 151.447 39.9023 1.62119 0
6 1 Si 145.355 42.6466 1.63993 0
7 1 Si 153.59 42.4652 1.62257 0
8 1 Si 150.527 50.4326 1.62581 0
9 1 Si 143.547 48.5491 1.62915 0
10 1 Si 143.272 52.0075 1.64588 0
11 1 Si 145.745 54.2378 1.62574 0
12 1 Si 148.95 53.3938 1.62787 0
13 1 Si 155.204 47.3842 1.60957 0
14 1 Si 153.826 50.3218 1.60987 0
15 1 Si 188.548 64.4017 1.62529 0
16 1 Si 190.524 61.7283 1.62488 0
17 1 Si 185.264 64.9269 1.63823 0
18 1 Si 182.601 59.6022 1.63339 0
19 1 Si 185.847 58.126 1.62502 0
20 1 Si 182.35 63.015 1.63306 0
21 1 Si 189.392 58.6775 1.62921 0
22 1 Si 190.581 66.9439 1.61163 0
23 1 Si 193.833 62.1725 1.62085 0
24 1 Si 193.388 65.3865 1.61658 0
25 1 Si 185.422 68.1708 1.63374 0
26 1 Si 190.523 70.2355 1.62262 0
27 1 Si 187.457 70.7064 1.63929 0
28 1 Si 182.396 44.288 1.63643 0
29 1 Si 179.756 42.237 1.64557 0
30 1 Si 185.55 42.9639 1.6373 0
31 1 Si 186.222 39.6864 1.63511 0
32 1 Si 183.569 37.7457 1.64314 0
33 1 Si 180.494 39.0117 1.64707 0
34 1 Si 181.53 47.5439 1.64386 0
35 1 Si 176.535 43.2699 1.63687 0
36 1 Si 175.847 46.5317 1.61844 0
37 1 Si 178.378 48.6489 1.62758 0
38 1 Si 188.44 44.5655 1.6201 0
39 1 Si 189.151 47.7204 1.62565 0
40 1 Si 183.709 49.9914 1.6191 0
41 1 Si 186.966 50.0541 1.61838 0
42 1 Si 191.461 43.2814 1.62855 0
43 1 Si 189.316 38.3666 1.63376 0
44 1 Si 192.137 40.1274 1.61858 0
45 1 Si 193.868 45.4503 1.62633 0
46 1 Si 192.36 48.2887 1.61654 0
47 1 Si 116.128 67.1203 1.61961 0
48 1 Si 115.784 63.9688 1.64754 0
49 1 Si 113.471 69.0543 1.62864 0
50 1 Si 112.879 63.0199 1.63813 0
51 1 Si 110.244 64.5231 1.63682 0
52 1 Si 110.509 67.6745 1.64083 0
53 1 Si 119.287 67.786 1.63031 0
54 1 Si 119.542 59.3299 1.62902 0
55 1 Si 116.869 60.9782 1.62313 0
56 1 Si 121.62 61.6358 1.61325 0
57 1 Si 121.063 64.9274 1.64008 0
58 1 Si 119.899 71.0931 1.64875 0
59 1 Si 113.838 72.2869 1.63578 0
60 1 Si 117.116 73.1624 1.62457 0
61 1 Si 198.966 47.8281 1.64108 0
62 1 Si 197.112 44.8981 1.62689 0
63 1 Si 0.492088 47.359 1.63931 0
64 1 Si 201.063 40.52 1.63579 0
65 1 Si 197.835 41.5 1.63037 0
66 1 Si 2.04331 42.1584 1.62598 0
67 1 Si 3.17543 45.13 1.64222 0
68 1 Si 197.29 51.0519 1.63465 0
69 1 Si 193.906 51.1162 1.62803 0
70 1 Si 198.177 54.4167 1.62887 0
71 1 Si 2.24386 49.9723 1.65483 0
72 1 Si 1.76308 53.1088 1.62826 0
73 1 Si 201.394 55.4002 1.62103 0
74 1 Si 191.561 53.5161 1.62752 0
75 1 Si 192.308 56.6559 1.62814 0
76 1 Si 195.78 56.9565 1.62349 0
77 1 Si 108.588 8.06242 1.58929 0
78 1 Si 105.288 7.60748 1.62937 0
79 1 Si 108.566 11.2576 1.62089 0
80 1 Si 105.741 12.7701 1.62632 0
81 1 Si 103.319 10.5605 1.62074 0
82 1 Si 104.541 4.34696 1.62463 0
83 1 Si 106.237 1.35155 1.59509 0
84 1 Si 101.277 3.95968 1.61659 0
85 1 Si 101.365 0.660729 1.63319 0
86 1 Si 104.105 175.184 1.59748 0
87 1 Si 111.844 7.37834 1.63247 0
88 1 Si 112.95 4.24295 1.62395 0
89 1 Si 111.884 1.00402 1.62428 0
90 1 Si 108.993 175.647 1.62947 0
91 1 Si 113.707 10.2522 1.61842 0
92 1 Si 111.455 12.5751 1.6234 0
93 1 Si 116.182 4.28749 1.61618 0
94 1 Si 116.719 1.16064 1.61252 0
95 1 Si 114.463 175.208 1.60816 0
96 1 Si 118.691 6.28022 1.63119 0
97 1 Si 119.321 9.45089 1.62298 0
98 1 Si 116.841 11.5976 1.65071 0
99 1 Si 121.536 4.87706 1.62116 0
100 1 Si 122.12 1.83829 1.61252 0
101 1 Si 119.59 0.0646275 1.61951 0
102 1 Si 124.039 6.75512 1.60812 0
103 1 Si 122.617 9.63902 1.63127 0
104 1 Si 126.686 4.99008 1.64081 0
105 1 Si 127.165 1.79349 1.63307 0
106 1 Si 124.661 176.231 1.63511 0
107 1 Si 129.524 6.27467 1.62721 0
108 1 Si 130.333 9.3879 1.63834 0
109 1 Si 124.676 12.1193 1.62545 0
110 1 Si 127.992 11.7327 1.62656 0
111 1 Si 131.252 3.59441 1.61894 0
112 1 Si 130.098 0.603709 1.6122 0
113 1 Si 134.312 3.97168 1.62339 0
114 1 Si 135.424 6.92448 1.62171 0
115 1 Si 133.621 9.60919 1.63308 0
116 1 Si 136.197 1.40072 1.60989 0
117 1 Si 131.69 174.025 1.63468 0
118 1 Si 135.035 174.545 1.62942 0
119 1 Si 138.597 6.6331 1.62144 0
120 1 Si 138.82 3.35534 1.63095 0
121 1 Si 144.091 3.94381 1.59858 0
122 1 Si 145.162 6.97285 1.63886 0
123 1 Si 141.623 1.90286 1.63266 0
124 1 Si 140.358 9.37009 1.64643 0
125 1 Si 143.591 9.75321 1.62808 0
126 1 Si 146.475 1.85269 1.59673 0
127 1 Si 148.364 7.00963 1.61918 0
128 1 Si 148.938 3.84891 1.63311 0
129 1 Si 142.211 174.966 1.61436 0
130 1 Si 145.458 175.095 1.6335 0
131 1 Si 156.548 2.8479 1.63188 0
132 1 Si 159.763 2.67605 1.63666 0
133 1 Si 154.178 5.0738 1.61855 0
134 1 Si 161.216 5.81677 1.63715 0
135 1 Si 153.631 8.40967 1.63425 0
136 1 Si 159.621 9.07448 1.63368 0
137 1 Si 156.362 10.3971 1.6301 0
138 1 Si 155.572 176.041 1.6225 0
139 1 Si 160.389 175.491 1.62968 0
140 1 Si 157.658 173.615 1.62042 0
141 1 Si 151.863 2.79336 1.61686 0
142 1 Si 152.437 175.88 1.64029 0
143 1 Si 166.544 2.78051 1.63788 0
144 1 Si 164.624 5.63031 1.62449 0
145 1 Si 165.754 175.746 1.62443 0
146 1 Si 163.184 173.565 1.62444 0
147 1 Si 169.874 3.18652 1.63428 0
148 1 Si 171.128 6.15581 1.63776 0
149 1 Si 166.2 8.60053 1.63166 0
150 1 Si 169.415 8.93258 1.64366 0
151 1 Si 172.183 0.836503 1.63535 0
152 1 Si 168.205 173.651 1.61185 0
153 1 Si 171.339 174.114 1.6267 0
154 1 Si 176.205 3.60758 1.63836 0
155 1 Si 174.34 6.23693 1.63748 0
156 1 Si 175.414 0.539727 1.63729 0
157 1 Si 179.327 3.75386 1.64179 0
158 1 Si 180.381 6.67699 1.63667 0
159 1 Si 175.597 9.17039 1.64046 0
160 1 Si 178.736 9.33733 1.64462 0
161 1 Si 181.23 1.26682 1.61603 0
162 1 Si 177.509 174.226 1.63821 0
163 1 Si 180.709 174.442 1.60822 0
164 1 Si 185.31 4.30437 1.64302 0
165 1 Si 184.307 1.44058 1.62915 0
166 1 Si 183.437 6.74582 1.62137 0
167 1 Si 190.534 2.64892 1.65245 0
168 1 Si 188.315 4.90283 1.62848 0
169 1 Si 193.286 4.5383 1.64266 0
170 1 Si 193.252 7.93466 1.6008 0
171 1 Si 188.01 8.0321 1.63231 0
172 1 Si 190.584 9.66379 1.62193 0
173 1 Si 189.328 175.743 1.63015 0
174 1 Si 186.154 175.2 1.61176 0
175 1 Si 196.102 2.7836 1.62515 0
176 1 Si 195.914 175.559 1.62456 0
177 1 Si 190.397 172.56 1.62403 0
178 1 Si 193.798 172.751 1.62827 0
179 1 Si 199.03 4.63472 1.62004 0
180 1 Si 199.305 8.07718 1.61405 0
181 1 Si 194.516 11.0291 1.64366 0
182 1 Si 197.677 11.0003 1.61715 0
183 1 Si 0.109984 2.86475 1.63162 0
184 1 Si 201.86 175.704 1.62554 0
185 1 Si 198.881 174.159 1.61912 0
186 1 Si 3.0602 4.581 1.60501 0
187 1 Si 0.308016 9.5791 1.6197 0
188 1 Si 3.01918 7.83693 1.62412 0
189 1 Si 6.38101 4.27186 1.62961 0
190 1 Si 7.57944 1.28991 1.63687 0
191 1 Si 5.80744 174.719 1.62652 0
192 1 Si 2.66143 173.601 1.6279 0
193 1 Si 135.494 12.2272 1.62254 0
194 1 Si 138.729 12.1315 1.61623 0
195 1 Si 150.383 9.57318 1.6369 0
196 1 Si 145.265 12.6105 1.63268 0
197 1 Si 148.641 12.545 1.63763 0
198 1 Si 161.643 11.7507 1.61929 0
199 1 Si 164.85 11.5634 1.62861 0
200 1 Si 170.777 11.9303 1.63107 0
201 1 Si 173.962 11.9175 1.63962 0
202 1 Si 185.165 9.30973 1.62079 0
203 1 Si 111.968 15.7805 1.64066 0
204 1 Si 105.919 16.0363 1.63667 0
205 1 Si 109.066 17.3351 1.62649 0
206 1 Si 117.628 14.8803 1.61295 0
207 1 Si 115.082 16.9247 1.60613 0
208 1 Si 123.561 15.2391 1.62801 0
209 1 Si 120.501 16.6243 1.6287 0
210 1 Si 128.927 14.7935 1.61025 0
211 1 Si 126.429 16.7955 1.59922 0
212 1 Si 134.712 15.3125 1.62454 0
213 1 Si 131.703 16.3994 1.62533 0
214 1 Si 140.135 15.0392 1.62629 0
215 1 Si 143.411 15.4076 1.65303 0
216 1 Si 155.774 13.8247 1.61084 0
217 1 Si 161.315 15.0484 1.6244 0
218 1 Si 158.248 16.022 1.61832 0
219 1 Si 166.266 14.5513 1.62448 0
220 1 Si 169.498 14.9933 1.6332 0
221 1 Si 180.384 12.0065 1.62856 0
222 1 Si 175.651 14.6108 1.63541 0
223 1 Si 178.814 14.7095 1.61972 0
224 1 Si 183.552 11.9685 1.63215 0
225 1 Si 190.268 12.7864 1.63815 0
226 1 Si 184.895 14.7629 1.62048 0
227 1 Si 187.992 14.9408 1.62309 0
228 1 Si 193.092 14.0744 1.59013 0
229 1 Si 0.276172 12.8891 1.64663 0
230 1 Si 198.995 14.0652 1.62438 0
231 1 Si 103.073 17.8537 1.62603 0
232 1 Si 99.9755 11.886 1.62614 0
233 1 Si 98.0041 15.0733 1.62994 0
234 1 Si 99.6757 17.8658 1.63875 0
235 1 Si 137.516 16.9673 1.63009 0
236 1 Si 149.924 15.65 1.63748 0
237 1 Si 153.219 16.0213 1.63184 0
238 1 Si 164.071 16.9594 1.62477 0
239 1 Si 171.373 17.8597 1.62909 0
240 1 Si 174.625 17.5863 1.61418 0
241 1 Si 3.3517 14.3373 1.63215 0
242 1 Si 5.93603 9.20461 1.62485 0
243 1 Si 6.1886 12.4615 1.64011 0
244 1 Si 109.788 20.5003 1.63199 0
245 1 Si 106.895 22.083 1.63555 0
246 1 Si 103.928 20.9304 1.62685 0
247 1 Si 116.41 19.9107 1.59337 0
248 1 Si 113.163 21.0167 1.61921 0
249 1 Si 119.91 19.946 1.6237 0
250 1 Si 127.991 19.6689 1.64014 0
251 1 Si 122.603 22.2713 1.62383 0
252 1 Si 126.078 22.2934 1.61993 0
253 1 Si 131.328 19.6117 1.61284 0
254 1 Si 137.366 20.1765 1.62061 0
255 1 Si 134.231 21.314 1.62351 0
256 1 Si 144.734 18.4628 1.62686 0
257 1 Si 148.002 18.428 1.6232 0
258 1 Si 154.189 19.172 1.61425 0
259 1 Si 157.453 19.1902 1.61789 0
260 1 Si 164.94 20.2582 1.63151 0
261 1 Si 167.794 22.1337 1.62044 0
262 1 Si 171.011 21.2045 1.63178 0
263 1 Si 180.167 17.602 1.61787 0
264 1 Si 183.404 17.5851 1.61761 0
265 1 Si 191.928 17.2349 1.64157 0
266 1 Si 188.684 18.0626 1.60499 0
267 1 Si 197.274 17.2233 1.64146 0
268 1 Si 194.306 19.3974 1.62707 0
269 1 Si 199.572 19.3986 1.64702 0
270 1 Si 0.903308 19.4061 1.61762 0
271 1 Si 3.64586 17.6734 1.63683 0
272 1 Si 139.94 22.3139 1.6223 0
273 1 Si 134.55 24.581 1.62883 0
274 1 Si 138.071 25.1994 1.62144 0
275 1 Si 143.424 21.5981 1.62557 0
276 1 Si 148.941 21.577 1.61922 0
277 1 Si 152.252 21.8542 1.65035 0
278 1 Si 159.24 21.9454 1.65063 0
279 1 Si 162.53 22.496 1.61498 0
280 1 Si 177.411 19.35 1.62896 0
281 1 Si 185.769 19.8163 1.62165 0
282 1 Si 106.034 25.1864 1.6268 0
283 1 Si 103.063 26.3483 1.60211 0
284 1 Si 101.906 23.4001 1.61332 0
285 1 Si 114.263 23.9022 1.64276 0
286 1 Si 111.248 25.39 1.55278 0
287 1 Si 108.568 26.9134 1.64019 0
288 1 Si 116.432 26.1717 1.61972 0
289 1 Si 113.68 27.6844 1.62438 0
290 1 Si 122.162 25.5307 1.61007 0
291 1 Si 119.407 27.373 1.6395 0
292 1 Si 127.951 25.1329 1.61954 0
293 1 Si 125.164 26.9339 1.61917 0
294 1 Si 131.394 26.3165 1.645 0
295 1 Si 146.23 23.5969 1.62667 0
296 1 Si 153.981 24.6254 1.62365 0
297 1 Si 157.262 24.5305 1.62159 0
298 1 Si 163.885 25.5484 1.62675 0
299 1 Si 167.236 25.4466 1.62385 0
300 1 Si 177.257 22.5692 1.62231 0
301 1 Si 173.776 23.4357 1.62035 0
302 1 Si 184.29 22.9147 1.63682 0
303 1 Si 180.481 24.101 1.62468 0
304 1 Si 193.182 22.914 1.62951 0
305 1 Si 186.829 25.0936 1.61677 0
306 1 Si 190.3 25.112 1.62834 0
307 1 Si 198.228 22.272 1.64223 0
308 1 Si 196.072 24.5358 1.62229 0
309 1 Si 170.636 59.7522 1.6241 0
310 1 Si 168.268 57.5632 1.61611 0
311 1 Si 173.303 57.6464 1.61451 0
312 1 Si 172.154 54.3479 1.63278 0
313 1 Si 168.82 54.3323 1.6109 0
314 1 Si 170.079 63.2413 1.62662 0
315 1 Si 165.216 58.5045 1.63115 0
316 1 Si 164.32 61.8094 1.6317 0
317 1 Si 164.13 65.2944 1.61855 0
318 1 Si 167.37 65.9717 1.63138 0
319 1 Si 176.378 59.2082 1.63804 0
320 1 Si 176.162 62.617 1.63833 0
321 1 Si 173.189 64.4135 1.63826 0
322 1 Si 1.2546 22.5055 1.57812 0
323 1 Si 200.556 24.1913 1.56186 0
324 1 Si 3.65481 24.4911 1.59202 0
325 1 Si 6.46069 19.5817 1.63382 0
326 1 Si 6.26175 22.8253 1.61488 0
327 1 Si 146.472 27.0263 1.62897 0
328 1 Si 139.658 28.3109 1.63658 0
329 1 Si 143.36 28.6477 1.62972 0
330 1 Si 149.673 28.8235 1.62199 0
331 1 Si 152.874 27.702 1.62791 0
332 1 Si 158.489 27.4909 1.6222 0
333 1 Si 161.732 28.1224 1.63589 0
334 1 Si 179.555 57.7509 1.63122 0
335 1 Si 179.727 54.3104 1.65159 0
336 1 Si 173.946 51.4303 1.62503 0
337 1 Si 177.352 51.7988 1.61724 0
338 1 Si 185.603 54.8687 1.63027 0
339 1 Si 182.832 53.1441 1.6261 0
340 1 Si 179.107 64.2831 1.62359 0
341 1 Si 173.075 26.7881 1.62604 0
342 1 Si 179.329 27.3161 1.64226 0
343 1 Si 176.027 28.6384 1.6472 0
344 1 Si 188.286 53.0184 1.60868 0
345 1 Si 108.605 30.0159 1.62336 0
346 1 Si 105.98 31.7911 1.61036 0
347 1 Si 102.766 31.6592 1.6259 0
348 1 Si 101.158 28.9622 1.63107 0
349 1 Si 111.781 30.1594 1.63364 0
350 1 Si 119.427 30.6778 1.65116 0
351 1 Si 113.13 32.9231 1.62554 0
352 1 Si 116.553 32.5218 1.62697 0
353 1 Si 125.393 30.1673 1.65407 0
354 1 Si 122.562 31.9631 1.62394 0
355 1 Si 131.479 29.6971 1.61097 0
356 1 Si 128.516 31.3152 1.6274 0
357 1 Si 137.48 31.1423 1.6396 0
358 1 Si 134.035 31.8782 1.61878 0
359 1 Si 144.646 31.6376 1.62574 0
360 1 Si 150.207 32.2251 1.61883 0
361 1 Si 147.275 33.6392 1.63836 0
362 1 Si 155.773 29.3314 1.62543 0
363 1 Si 169.671 27.9396 1.63769 0
364 1 Si 185.193 28.0034 1.62449 0
365 1 Si 182.071 29.1985 1.64182 0
366 1 Si 190.617 28.4533 1.62899 0
367 1 Si 187.7 30.0022 1.63328 0
368 1 Si 197.946 27.4473 1.61788 0
369 1 Si 193.217 30.5165 1.61834 0
370 1 Si 196.5 30.3382 1.61745 0
371 1 Si 1.06254 26.0662 1.61389 0
372 1 Si 201.242 28.5233 1.58376 0
373 1 Si 139.299 33.8037 1.61369 0
374 1 Si 142.405 33.7175 1.61808 0
375 1 Si 156.201 32.5219 1.62338 0
376 1 Si 153.18 34.0749 1.61927 0
377 1 Si 162.263 31.4162 1.63315 0
378 1 Si 159.487 33.4872 1.63531 0
379 1 Si 168.563 31.3444 1.62657 0
380 1 Si 165.412 32.5703 1.6275 0
381 1 Si 175.711 32.052 1.61173 0
382 1 Si 170.247 34.3016 1.62618 0
383 1 Si 173.52 34.6491 1.62999 0
384 1 Si 181.522 32.4451 1.64308 0
385 1 Si 178.518 33.7201 1.62276 0
386 1 Si 106.813 34.8476 1.59926 0
387 1 Si 103.759 36.1812 1.64115 0
388 1 Si 100.958 34.3727 1.62569 0
389 1 Si 110.188 34.735 1.62805 0
390 1 Si 117.248 35.6022 1.63053 0
391 1 Si 111.344 37.6476 1.63334 0
392 1 Si 114.606 37.4094 1.60323 0
393 1 Si 123.02 35.2725 1.62423 0
394 1 Si 120.224 36.9829 1.63999 0
395 1 Si 128.783 34.5448 1.62084 0
396 1 Si 126.09 36.6678 1.64113 0
397 1 Si 132.138 34.7164 1.61284 0
398 1 Si 140.419 36.7597 1.65206 0
399 1 Si 132.836 37.8593 1.63518 0
400 1 Si 136.003 39.04 1.59361 0
401 1 Si 139.329 39.6484 1.62863 0
402 1 Si 143.535 36.6217 1.58637 0
403 1 Si 146.64 36.9098 1.65497 0
404 1 Si 153.735 37.3961 1.62255 0
405 1 Si 159.857 36.8118 1.63838 0
406 1 Si 156.949 38.5223 1.62857 0
407 1 Si 187.124 33.2054 1.63256 0
408 1 Si 184.084 34.4876 1.64535 0
409 1 Si 192.759 33.7677 1.62163 0
410 1 Si 189.776 35.1239 1.64174 0
411 1 Si 198.006 33.3312 1.62198 0
412 1 Si 195.541 35.5899 1.62538 0
413 1 Si 2.09183 32.2438 1.60083 0
414 1 Si 2.86435 29.1017 1.59646 0
415 1 Si 201.252 34.2064 1.64962 0
416 1 Si 5.35256 32.639 1.61985 0
417 1 Si 6.26552 28.1705 1.6381 0
418 1 Si 8.11582 30.8377 1.63069 0
419 1 Si 109.275 40.1842 1.63901 0
420 1 Si 103.352 39.3726 1.63911 0
421 1 Si 106.104 41.2976 1.64344 0
422 1 Si 116.659 39.8281 1.60969 0
423 1 Si 111.695 42.1807 1.61864 0
424 1 Si 114.81 42.2415 1.64144 0
425 1 Si 165.4 35.831 1.60987 0
426 1 Si 163.011 38.0145 1.63421 0
427 1 Si 168.364 37.0514 1.60756 0
428 1 Si 177.986 36.933 1.63549 0
429 1 Si 174.827 37.7735 1.62538 0
430 1 Si 0.186196 37.3852 1.63811 0
431 1 Si 3.34176 37.5113 1.6178 0
432 1 Si 5.88614 35.6599 1.61852 0
433 1 Si 100.069 39.5935 1.62315 0
434 1 Si 97.4623 34.4426 1.61735 0
435 1 Si 94.7275 36.5654 1.61626 0
436 1 Si 96.9318 38.8282 1.64056 0
437 1 Si 119.835 40.187 1.62214 0
438 1 Si 126.649 40.0163 1.62095 0
439 1 Si 121.488 43.1063 1.65347 0
440 1 Si 124.905 43.1639 1.62551 0
441 1 Si 130.002 39.7353 1.62232 0
442 1 Si 134.481 41.7849 1.62035 0
443 1 Si 131.38 42.4976 1.62559 0
444 1 Si 141.833 41.9659 1.63015 0
445 1 Si 136.231 44.3028 1.626 0
446 1 Si 139.521 44.2794 1.60594 0
447 1 Si 195.342 39.0273 1.62479 0
448 1 Si 111.366 45.2502 1.62926 0
449 1 Si 106.003 44.6031 1.59835 0
450 1 Si 108.572 46.483 1.60892 0
451 1 Si 116.515 44.8214 1.62126 0
452 1 Si 114.088 46.6836 1.62296 0
453 1 Si 119.466 45.7731 1.61046 0
454 1 Si 130.026 45.368 1.60628 0
455 1 Si 126.776 46.2033 1.63013 0
456 1 Si 156.954 41.8027 1.6315 0
457 1 Si 164.783 40.8647 1.62645 0
458 1 Si 159.826 43.8413 1.62471 0
459 1 Si 163.483 43.9076 1.63041 0
460 1 Si 168.113 40.343 1.62935 0
461 1 Si 173.931 41.0985 1.63522 0
462 1 Si 170.734 42.4778 1.62157 0
463 1 Si 4.67169 40.3202 1.61208 0
464 1 Si 104.408 47.4315 1.62244 0
465 1 Si 101.308 47.3128 1.64533 0
466 1 Si 98.2397 42.1336 1.60979 0
467 1 Si 99.1608 45.0523 1.6025 0
468 1 Si 133.282 45.8637 1.6284 0
469 1 Si 140.479 47.3221 1.61002 0
470 1 Si 134.43 48.7183 1.63737 0
471 1 Si 137.66 48.8164 1.63399 0
472 1 Si 158.554 46.8632 1.64308 0
473 1 Si 108.743 49.6526 1.63175 0
474 1 Si 105.633 50.5173 1.63423 0
475 1 Si 114.817 49.6489 1.60564 0
476 1 Si 111.783 50.9234 1.64619 0
477 1 Si 8.32397 6.973 1.62149 0
478 1 Si 10.8103 1.10665 1.60529 0
479 1 Si 10.7909 174.19 1.61907 0
480 1 Si 8.12392 172.481 1.63104 0
481 1 Si 118.033 48.7812 1.64278 0
482 1 Si 13.7635 2.4717 1.63337 0
483 1 Si 14.4094 5.78554 1.63253 0
484 1 Si 11.5974 7.75983 1.64012 0
485 1 Si 126.266 49.7237 1.63913 0
486 1 Si 119.918 51.3074 1.62671 0
487 1 Si 123.234 51.355 1.61317 0
488 1 Si 15.4424 175.894 1.62929 0
489 1 Si 13.7168 173.116 1.62653 0
490 1 Si 132.187 51.0217 1.61349 0
491 1 Si 128.999 51.8982 1.62716 0
492 1 Si 20.8774 1.74662 1.61877 0
493 1 Si 20.5939 5.27656 1.63901 0
494 1 Si 18.5708 175.325 1.63105 0
495 1 Si 17.599 7.1699 1.61724 0
496 1 Si 23.8975 0.334951 1.61158 0
497 1 Si 28.9189 3.95728 1.63288 0
498 1 Si 26.8137 6.58996 1.62425 0
499 1 Si 27.2421 0.997625 1.63655 0
500 1 Si 23.4802 7.16173 1.63501 0
501 1 Si 20.9496 171.196 1.6468 0
502 1 Si 17.9832 171.866 1.63473 0
503 1 Si 23.029 173.547 1.62378 0
504 1 Si 166.12 46.4071 1.62096 0
505 1 Si 161.025 49.1233 1.62826 0
506 1 Si 164.476 49.4146 1.62902 0
507 1 Si 32.4297 4.4579 1.62561 0
508 1 Si 33.5303 7.61276 1.62537 0
509 1 Si 28.339 9.50026 1.62761 0
510 1 Si 31.5017 10.1757 1.63932 0
511 1 Si 35.1656 2.34503 1.62803 0
512 1 Si 35.0211 175.345 1.63227 0
513 1 Si 32.321 173.803 1.62404 0
514 1 Si 29.2766 174.716 1.62857 0
515 1 Si 169.895 45.8683 1.61948 0
516 1 Si 38.4428 3.07405 1.61663 0
517 1 Si 39.1028 6.19308 1.6254 0
518 1 Si 36.6922 8.33027 1.63466 0
519 1 Si 41.0883 1.05063 1.62993 0
520 1 Si 40.3007 174.12 1.63205 0
521 1 Si 37.3022 173.041 1.63103 0
522 1 Si 44.1579 2.40604 1.63133 0
523 1 Si 44.7346 5.73557 1.63223 0
524 1 Si 42.0175 7.54892 1.61691 0
525 1 Si 46.8782 0.577505 1.60741 0
526 1 Si 50.2502 5.22321 1.63386 0
527 1 Si 47.7368 7.16814 1.63707 0
528 1 Si 49.5635 2.18336 1.62065 0
529 1 Si 41.6026 171.166 1.62962 0
530 1 Si 44.6375 170.584 1.59119 0
531 1 Si 47.6518 171.31 1.63634 0
532 1 Si 48.81 174.181 1.63604 0
533 1 Si 172.853 48.06 1.61591 0
534 1 Si 53.4045 5.70088 1.62907 0
535 1 Si 54.658 8.65737 1.63046 0
536 1 Si 48.8835 10.2235 1.64165 0
537 1 Si 52.1716 10.8518 1.63135 0
538 1 Si 54.5093 2.71664 1.62591 0
539 1 Si 52.204 0.573669 1.61473 0
540 1 Si 59.9189 3.50605 1.61081 0
541 1 Si 57.4068 1.53723 1.62376 0
542 1 Si 60.1445 6.80752 1.64731 0
543 1 Si 57.9372 9.29982 1.64063 0
544 1 Si 62.1567 1.12367 1.61213 0
545 1 Si 57.7696 174.57 1.62036 0
546 1 Si 61.0265 174.298 1.64385 0
547 1 Si 65.4336 5.32274 1.59626 0
548 1 Si 65.2371 2.06513 1.65783 0
549 1 Si 63.2206 7.6555 1.61858 0
550 1 Si 71.718 4.68314 1.61937 0
551 1 Si 74.9987 4.87714 1.61873 0
552 1 Si 70.2945 7.74596 1.62737 0
553 1 Si 76.096 7.9129 1.63916 0
554 1 Si 74.2414 10.4826 1.60119 0
555 1 Si 71.1432 10.9592 1.6278 0
556 1 Si 70.5901 1.52912 1.62803 0
557 1 Si 76.8928 2.19067 1.63973 0
558 1 Si 75.5657 175.482 1.615 0
559 1 Si 72.4418 175.184 1.62143 0
560 1 Si 67.1726 7.97087 1.62994 0
561 1 Si 67.7448 176.227 1.60917 0
562 1 Si 5.33069 49.3112 1.6265 0
563 1 Si 6.72226 44.7972 1.63578 0
564 1 Si 8.04071 47.6806 1.63468 0
565 1 Si 80.0916 2.43522 1.62752 0
566 1 Si 82.098 4.9088 1.62292 0
567 1 Si 81.8209 8.06269 1.62952 0
568 1 Si 78.9408 9.36958 1.62095 0
569 1 Si 82.0803 176.224 1.63696 0
570 1 Si 85.0589 3.79395 1.63003 0
571 1 Si 85.1441 0.712659 1.62847 0
572 1 Si 78.9398 171.214 1.63512 0
573 1 Si 76.0333 172.276 1.62047 0
574 1 Si 81.3803 173.21 1.62824 0
575 1 Si 87.7576 5.34787 1.63768 0
576 1 Si 87.2388 8.50824 1.63412 0
577 1 Si 84.4111 10.0183 1.62467 0
578 1 Si 90.4817 3.64218 1.62983 0
579 1 Si 90.7559 0.388449 1.63764 0
580 1 Si 87.8516 175.377 1.63007 0
581 1 Si 93.0677 5.48732 1.64188 0
582 1 Si 92.5627 8.64113 1.64193 0
583 1 Si 89.8208 10.2491 1.62264 0
584 1 Si 95.9492 4.05413 1.62929 0
585 1 Si 96.0361 0.825232 1.62007 0
586 1 Si 93.5769 174.985 1.62233 0
587 1 Si 98.5828 6.00591 1.63296 0
588 1 Si 97.8589 9.36467 1.64204 0
589 1 Si 94.8601 10.7982 1.61963 0
590 1 Si 98.6733 175.281 1.6198 0
591 1 Si 137.687 51.8893 1.63074 0
592 1 Si 134.715 52.9206 1.62181 0
593 1 Si 17.6996 10.6653 1.62565 0
594 1 Si 11.9177 11.0478 1.61443 0
595 1 Si 14.881 12.5104 1.62939 0
596 1 Si 140.328 53.5925 1.59624 0
597 1 Si 23.2698 10.4671 1.62456 0
598 1 Si 20.6325 12.4069 1.64228 0
599 1 Si 26.1956 11.864 1.63853 0
600 1 Si 41.1771 10.7004 1.62653 0
601 1 Si 37.941 11.2948 1.6248 0
602 1 Si 46.7165 12.6612 1.61302 0
603 1 Si 43.4613 12.9384 1.6339 0
604 1 Si 65.0362 10.3423 1.63679 0
605 1 Si 58.8776 12.5167 1.61799 0
606 1 Si 61.5944 14.5394 1.62892 0
607 1 Si 64.8405 13.7087 1.63935 0
608 1 Si 75.6602 13.3113 1.61542 0
609 1 Si 78.7291 12.5894 1.6278 0
610 1 Si 159.385 51.853 1.62182 0
611 1 Si 156.21 52.4583 1.64646 0
612 1 Si 111.978 54.0794 1.63781 0
613 1 Si 104.186 53.569 1.62787 0
614 1 Si 109.227 55.8091 1.61594 0
615 1 Si 106.02 56.1446 1.64151 0
616 1 Si 118.029 53.979 1.62558 0
617 1 Si 115.052 55.1985 1.64819 0
618 1 Si 123.087 54.5926 1.60406 0
619 1 Si 120.282 56.186 1.63293 0
620 1 Si 9.43905 13.2448 1.62295 0
621 1 Si 128.794 55.2946 1.6506 0
622 1 Si 125.667 56.5356 1.61617 0
623 1 Si 134.618 56.0136 1.60593 0
624 1 Si 131.596 57.2618 1.65309 0
625 1 Si 165.951 52.5961 1.6224 0
626 1 Si 161.051 54.5547 1.62558 0
627 1 Si 164.099 55.3465 1.61908 0
628 1 Si 32.6084 13.2677 1.63151 0
629 1 Si 27.1011 15.0001 1.63846 0
630 1 Si 30.3547 15.6912 1.6239 0
631 1 Si 35.8794 13.8419 1.64137 0
632 1 Si 53.1723 13.9372 1.63111 0
633 1 Si 47.8544 15.7028 1.62975 0
634 1 Si 51.0063 16.4145 1.61972 0
635 1 Si 56.3605 14.5679 1.62939 0
636 1 Si 4.78036 53.875 1.58379 0
637 1 Si 7.09993 51.79 1.57236 0
638 1 Si 100.094 50.1925 1.58004 0
639 1 Si 99.045 53.1396 1.64762 0
640 1 Si 101.261 55.27 1.6264 0
641 1 Si 70.4637 14.2037 1.62944 0
642 1 Si 73.438 15.5967 1.63089 0
643 1 Si 84.2412 13.2672 1.62237 0
644 1 Si 81.2206 14.5697 1.62583 0
645 1 Si 89.8306 13.4495 1.61622 0
646 1 Si 86.9803 15.1068 1.64203 0
647 1 Si 137.908 55.843 1.64402 0
648 1 Si 93.0925 13.62 1.63481 0
649 1 Si 145.57 57.6099 1.59663 0
650 1 Si 138.692 58.8073 1.62627 0
651 1 Si 141.285 60.4385 1.60053 0
652 1 Si 144.326 60.7464 1.65044 0
653 1 Si 94.6017 16.4439 1.62707 0
654 1 Si 14.3666 15.7866 1.6225 0
655 1 Si 11.0615 16.1037 1.62072 0
656 1 Si 150.415 56.3223 1.61332 0
657 1 Si 148.48 58.8881 1.61681 0
658 1 Si 21.534 15.7086 1.62336 0
659 1 Si 16.5125 18.3693 1.6383 0
660 1 Si 19.7891 18.4852 1.62771 0
661 1 Si 24.5853 17.0798 1.62164 0
662 1 Si 155.84 55.5906 1.6272 0
663 1 Si 153.341 57.5449 1.63586 0
664 1 Si 42.607 16.018 1.60839 0
665 1 Si 37.0193 16.9103 1.64285 0
666 1 Si 40.0755 17.9528 1.62873 0
667 1 Si 45.3322 17.662 1.60762 0
668 1 Si 158.788 56.6615 1.61978 0
669 1 Si 57.4576 17.5812 1.62604 0
670 1 Si 60.7139 17.7307 1.61683 0
671 1 Si 67.6028 15.9321 1.63652 0
672 1 Si 74.26 18.7127 1.62791 0
673 1 Si 80.5027 17.723 1.63186 0
674 1 Si 77.5771 19.3596 1.62234 0
675 1 Si 109.709 58.8903 1.62108 0
676 1 Si 108.592 61.8282 1.64134 0
677 1 Si 105.551 61.9426 1.61086 0
678 1 Si 104.422 58.9851 1.60608 0
679 1 Si 115.093 58.3415 1.61754 0
680 1 Si 112.528 59.9592 1.63833 0
681 1 Si 9.7637 19.0857 1.63536 0
682 1 Si 124.204 59.498 1.63287 0
683 1 Si 131.684 60.5555 1.64565 0
684 1 Si 125.943 62.0266 1.62748 0
685 1 Si 129.047 62.2856 1.62491 0
686 1 Si 137.017 61.4238 1.61322 0
687 1 Si 134.164 62.6997 1.62961 0
688 1 Si 139.653 63.0875 1.6025 0
689 1 Si 148.948 62.0658 1.61796 0
690 1 Si 144.484 64.1843 1.64382 0
691 1 Si 147.512 64.9485 1.62188 0
692 1 Si 31.7039 18.6463 1.63235 0
693 1 Si 34.8867 19.274 1.61318 0
694 1 Si 52.026 19.5256 1.63652 0
695 1 Si 44.3568 20.72 1.63644 0
696 1 Si 49.9298 22.0699 1.62653 0
697 1 Si 46.7007 22.9137 1.62828 0
698 1 Si 55.3098 19.9816 1.624 0
699 1 Si 0.701281 58.5654 1.61439 0
700 1 Si 4.11007 59.0378 1.63863 0
701 1 Si 6.18851 56.6295 1.58794 0
702 1 Si 68.1133 19.4841 1.63864 0
703 1 Si 71.4807 20.6834 1.61695 0
704 1 Si 86.4632 18.3698 1.63256 0
705 1 Si 83.291 19.3713 1.62476 0
706 1 Si 92.3998 19.4769 1.63317 0
707 1 Si 88.9373 20.6444 1.63067 0
708 1 Si 97.6162 20.5888 1.60938 0
709 1 Si 94.5253 21.9557 1.63137 0
710 1 Si 98.7944 23.555 1.61812 0
711 1 Si 153.728 60.7634 1.63741 0
712 1 Si 151.837 63.3238 1.60277 0
713 1 Si 12.0788 21.521 1.60667 0
714 1 Si 8.18795 25.383 1.63906 0
715 1 Si 11.4334 24.7157 1.61828 0
716 1 Si 15.3608 21.4289 1.63117 0
717 1 Si 159.115 59.6569 1.60245 0
718 1 Si 156.694 61.5627 1.59489 0
719 1 Si 24.7535 20.444 1.63364 0
720 1 Si 21.5928 21.3279 1.6185 0
721 1 Si 30.4169 21.5474 1.6149 0
722 1 Si 27.3912 22.624 1.6268 0
723 1 Si 161.253 61.8342 1.61231 0
724 1 Si 41.0864 21.0656 1.61248 0
725 1 Si 35.748 22.4075 1.62658 0
726 1 Si 38.8582 23.5546 1.64777 0
727 1 Si 62.1753 20.6832 1.6239 0
728 1 Si 56.749 22.9116 1.63414 0
729 1 Si 60.0221 23.1793 1.62311 0
730 1 Si 196.666 60.1827 1.63257 0
731 1 Si 65.3521 21.7091 1.62452 0
732 1 Si 81.771 22.2344 1.62587 0
733 1 Si 78.5059 22.4445 1.61337 0
734 1 Si 87.2785 23.7557 1.6249 0
735 1 Si 84.0213 24.4475 1.62725 0
736 1 Si 200.096 60.8869 1.62954 0
737 1 Si 124.179 64.6658 1.62824 0
738 1 Si 128.868 65.4196 1.62495 0
739 1 Si 126.142 67.0337 1.61456 0
740 1 Si 17.0356 24.3096 1.63122 0
741 1 Si 20.5074 24.5295 1.65314 0
742 1 Si 134.169 65.9918 1.63558 0
743 1 Si 139.925 66.2051 1.63635 0
744 1 Si 137.026 67.6529 1.62217 0
745 1 Si 131.24 67.3787 1.63678 0
746 1 Si 142.967 67.2249 1.64292 0
747 1 Si 32.8151 23.7357 1.62354 0
748 1 Si 152.016 66.5843 1.627 0
749 1 Si 148.983 67.8706 1.63339 0
750 1 Si 51.4054 24.9012 1.63076 0
751 1 Si 45.8304 26.1098 1.62715 0
752 1 Si 48.9946 27.0783 1.61911 0
753 1 Si 54.6435 25.397 1.63859 0
754 1 Si 201.09 64.0568 1.63021 0
755 1 Si 2.18468 65.6748 1.62766 0
756 1 Si 5.41697 64.5973 1.61903 0
757 1 Si 6.39963 61.4179 1.61186 0
758 1 Si 103.777 64.5433 1.62657 0
759 1 Si 101.5 60.2454 1.63647 0
760 1 Si 100.861 63.3827 1.62218 0
761 1 Si 72.7056 23.805 1.63776 0
762 1 Si 64.9064 25.1183 1.62855 0
763 1 Si 70.9149 26.5621 1.6157 0
764 1 Si 67.5136 27.3162 1.62735 0
765 1 Si 76.003 24.532 1.62388 0
766 1 Si 93.8276 25.3322 1.61865 0
767 1 Si 88.2109 26.9727 1.63372 0
768 1 Si 91.4451 27.8977 1.632 0
769 1 Si 158.854 63.7436 1.62438 0
770 1 Si 158.174 66.7045 1.61532 0
771 1 Si 155.074 67.734 1.63132 0
772 1 Si 96.922 26.1689 1.61579 0
773 1 Si 14.3637 26.3744 1.62592 0
774 1 Si 161.345 67.5364 1.60107 0
775 1 Si 28.4098 25.8625 1.6203 0
776 1 Si 22.6861 27.4273 1.62883 0
777 1 Si 26.344 28.3537 1.63235 0
778 1 Si 31.7181 26.7414 1.63051 0
779 1 Si 198.651 66.2401 1.60331 0
780 1 Si 195.656 67.54 1.63713 0
781 1 Si 39.6062 26.8349 1.62288 0
782 1 Si 42.8104 27.8022 1.61729 0
783 1 Si 200.079 69.0223 1.60424 0
784 1 Si 1.38792 68.8745 1.62294 0
785 1 Si 61.5848 26.0301 1.61958 0
786 1 Si 55.9983 28.3729 1.62347 0
787 1 Si 59.3777 28.6283 1.63447 0
788 1 Si 107.602 68.8742 1.60726 0
789 1 Si 104.769 67.5101 1.60916 0
790 1 Si 82.7462 27.4248 1.60203 0
791 1 Si 76.7739 27.6911 1.6231 0
792 1 Si 79.8682 29.0286 1.64424 0
793 1 Si 125.917 70.191 1.62435 0
794 1 Si 123.162 72.1302 1.63267 0
795 1 Si 85.5373 29.0506 1.59703 0
796 1 Si 129.217 69.9729 1.62598 0
797 1 Si 137.031 70.8679 1.63604 0
798 1 Si 131.004 72.5186 1.64175 0
799 1 Si 134.171 72.2586 1.59354 0
800 1 Si 144.108 70.4854 1.61658 0
801 1 Si 139.313 73.2423 1.61691 0
802 1 Si 142.538 73.5409 1.63378 0
803 1 Si 14.4351 29.7284 1.63377 0
804 1 Si 11.4537 31.6226 1.61915 0
805 1 Si 147.433 70.8873 1.62483 0
806 1 Si 17.5646 31.1789 1.62566 0
807 1 Si 20.9756 30.2691 1.64225 0
808 1 Si 33.8894 29.423 1.62384 0
809 1 Si 37.3525 29.4344 1.62221 0
810 1 Si 172.777 67.7133 1.64125 0
811 1 Si 167.319 69.4502 1.60889 0
812 1 Si 170.487 70.0992 1.61386 0
813 1 Si 178.311 67.4571 1.62304 0
814 1 Si 175.554 69.1421 1.62665 0
815 1 Si 50.3912 29.9738 1.64129 0
816 1 Si 53.6874 30.7426 1.62333 0
817 1 Si 180.04 70.0599 1.6318 0
818 1 Si 183.093 70.1834 1.63638 0
819 1 Si 73.5833 28.598 1.6196 0
820 1 Si 66.757 30.6149 1.62901 0
821 1 Si 72.87 31.6944 1.63004 0
822 1 Si 69.6214 32.3264 1.60956 0
823 1 Si 97.8703 29.1963 1.62857 0
824 1 Si 92.1859 31.3309 1.63116 0
825 1 Si 95.6485 31.678 1.62797 0
826 1 Si 156.096 70.6902 1.62324 0
827 1 Si 148.575 74.1341 1.62147 0
828 1 Si 154.607 73.5898 1.6132 0
829 1 Si 151.702 75.2113 1.62282 0
830 1 Si 159.375 70.2682 1.62835 0
831 1 Si 11.5734 34.9896 1.62788 0
832 1 Si 16.936 34.4305 1.62418 0
833 1 Si 14.4264 36.5726 1.62649 0
834 1 Si 194.96 70.7535 1.62716 0
835 1 Si 192.478 72.9419 1.62833 0
836 1 Si 28.816 31.0739 1.62636 0
837 1 Si 23.5788 32.3072 1.64721 0
838 1 Si 26.7005 33.3982 1.64078 0
839 1 Si 198.034 71.4574 1.63162 0
840 1 Si 32.2118 32.3582 1.61294 0
841 1 Si 2.74766 71.8034 1.61214 0
842 1 Si 5.47082 73.6384 1.63238 0
843 1 Si 8.31835 66.2166 1.62428 0
844 1 Si 9.04456 69.426 1.60936 0
845 1 Si 8.51056 72.6997 1.63248 0
846 1 Si 42.1451 31.0593 1.62143 0
847 1 Si 39.0198 32.3535 1.61417 0
848 1 Si 106.227 71.7129 1.61941 0
849 1 Si 103.366 70.3305 1.61922 0
850 1 Si 107.835 74.4765 1.63236 0
851 1 Si 111.169 74.3467 1.61448 0
852 1 Si 48.0204 32.1396 1.6118 0
853 1 Si 44.827 32.8078 1.64494 0
854 1 Si 60.5232 31.6821 1.62689 0
855 1 Si 63.7919 32.3114 1.62286 0
856 1 Si 129.574 75.3658 1.61972 0
857 1 Si 123.578 75.4002 1.62009 0
858 1 Si 126.636 76.6526 1.63617 0
859 1 Si 134.867 75.3018 1.61561 0
860 1 Si 132.278 76.9825 1.62644 0