LAMMPS data file via write_data, version 2 Aug 2023, timestep = 138, units = metal

15360 atoms
2 atom types

7.377347104325269 196.4532880913931 xlo xhi
6.604784390633961 168.5787077668627 ylo yhi
-100 100 zlo zhi

Masses

1 28.085
2 15.999

Atoms # full

9196 1 2 0 9.597642299929706 7.89069124083323 -2.2836203900591148 0 0 0
6536 1 1 0 9.033402853775907 9.326592758695515 -1.6526798886355683 0 0 0
9190 1 2 0 7.51595634139566 9.794545569672703 -2.1774281244540523 0 0 0
9195 1 2 0 10.109700840291403 10.454860771135808 -2.181900720941944 0 0 0
6539 1 1 0 11.582306342695539 10.972098164213671 -1.6486484161392756 0 0 0
9202 1 2 0 12.80583287410252 9.990469158988086 -2.2151074094286964 0 0 0
12936 1 2 0 8.996249544643389 9.264640770366658 -8.735624419654344e-07 0 0 0
9227 1 2 0 15.039973737062327 8.20067811464689 -2.2135081314779286 0 0 0
6555 1 1 0 14.320586137766856 9.588689516781493 -1.6434344044788511 0 0 0
9226 1 2 0 15.31171255371064 10.784822069837995 -2.1744241516147653 0 0 0
6556 1 1 0 16.760744628822394 11.35009896539975 -1.6525831575634602 0 0 0
9229 1 2 0 17.99493678541485 10.407077580446503 -2.222911641416074 0 0 0
12955 1 2 0 14.235261512411597 9.487535019103461 -2.569326324813321e-07 0 0 0
6787 1 1 0 15.108089803506333 6.644474455013623 -1.6449376126476498 0 1 0
6792 1 1 0 19.92884345419088 6.681919130875902 -1.648825002425403 0 0 0
9579 1 2 0 19.461616038469213 8.186407778759285 -2.1956615492961418 0 0 0
6789 1 1 0 19.40193777732278 9.756551549136883 -1.649383644809431 0 0 0
9578 1 2 0 20.64818705987775 10.704550465724202 -2.227339765585051 0 0 0
6790 1 1 0 21.613541205828845 11.923893001172026 -1.650902408570614 0 0 0
9581 1 2 0 23.16738495432042 11.56983762909679 -2.126506939101149 0 0 0
13189 1 2 0 19.44962305018129 9.739471168190612 -1.267752140237316e-07 0 0 0
9589 1 2 0 24.162042963389688 7.1484016063216504 -2.2415736670763264 0 0 0
6795 1 1 0 25.550080018963598 7.81838292274018 -1.6363956538997506 0 0 0
9586 1 2 0 25.597757091699467 9.380270203935678 -2.151063360740925 0 0 0
9590 1 2 0 27.013101969619452 7.266869975340697 -2.176640640050314 0 1 0
6793 1 1 0 26.672123344700136 10.529275446375793 -1.6462301780477295 0 0 0
9587 1 2 0 28.22180318189988 10.341719084947263 -2.214129524517853 0 0 0
9585 1 2 0 25.94704558486174 11.91109251612571 -2.2002965700386574 0 0 0
6800 1 1 0 29.59436460249517 11.102820446731277 -1.6483548211036425 0 0 0
13195 1 2 0 25.487431328045798 7.658090875736242 -6.527198910506794e-08 0 0 0
9603 1 2 0 31.748750579491468 7.9731015689403275 -2.2355529283181927 0 0 0
9597 1 2 0 31.009941459654307 10.476339153693635 -2.2237296482620885 0 0 0
6804 1 1 0 32.17302733240286 9.442336966963541 -1.6487057249884347 0 0 0
9604 1 2 0 33.6799703232741 9.775001591307173 -2.2410975792407477 0 0 0
6807 1 1 0 35.17041029998789 10.194915613098734 -1.6473969482488797 0 0 0
13204 1 2 0 32.20437598723288 9.480741432699757 -1.3468925934547627e-07 0 0 0
6810 1 1 0 37.94384579352976 9.178155469571006 -1.6502299250286558 0 0 0
9609 1 2 0 36.33003153453677 9.077394998860072 -2.117376451998879 0 0 0
9613 1 2 0 39.03173354986964 8.02967627945361 -2.213730534255168 0 0 0
9614 1 2 0 38.282361782915714 10.686759952913015 -2.2588096504862607 0 0 0
9608 1 2 0 35.48270175350636 11.731525653975387 -2.2132315651463954 0 0 0
6815 1 1 0 39.202417004104795 11.895172178248977 -1.6215123768329998 0 0 0
9623 1 2 0 40.70060088488674 11.36357837961744 -1.9908871692254058 0 0 0
13211 1 2 0 40.05995452619008 6.886795805383589 -4.6571121117222907e-07 0 1 0
6811 1 1 0 39.960861237467725 6.744268235475424 -1.6405564047512675 0 1 0
9633 1 2 0 43.59853417881551 8.128939078868806 -2.282921788066944 0 0 0
9632 1 2 0 43.16839899310961 10.768238944109893 -2.303389845549103 0 0 0
6821 1 1 0 44.058370863242516 9.553236158548248 -1.6392285285678807 0 0 0
9634 1 2 0 45.611240449694066 9.875149239846603 -2.0985498510010245 0 0 0
6825 1 1 0 46.287487450069406 11.309416272760902 -1.6393535780061688 0 0 0
6822 1 1 0 42.19731703200916 11.893233803172267 -1.6220827680536334 0 0 0
13221 1 2 0 43.87704278803933 9.476008439274581 -5.241730062970101e-07 0 0 0
13222 1 2 0 42.48402749425308 11.982430289467915 -3.592807353756634e-07 0 0 0
6823 1 1 0 43.118512073565455 6.6808250368038085 -1.6519379533540692 0 0 0
6832 1 1 0 48.38968115573095 7.260859435387461 -1.6467631464538772 0 0 0
9647 1 2 0 48.592375352407565 8.756392502731442 -2.2861996842773364 0 0 0
9639 1 2 0 47.83612551214194 11.333503080315385 -2.186034380238665 0 0 0
6831 1 1 0 48.929336458960194 10.21671281088971 -1.6465962267013254 0 0 0
9648 1 2 0 50.39105376970021 10.645291678939488 -2.2236433104477413 0 0 0
6834 1 1 0 51.430345927779705 11.77456376561423 -1.6453107039745138 0 0 0
13234 1 2 0 51.471394041289024 11.861281289821092 -6.551989965017717e-07 0 0 0
9649 1 2 0 46.83422548692634 6.912418005695253 -2.1207045545279097 0 1 0
6838 1 1 0 53.83582109276512 6.9896588544211635 -1.6501371365111004 0 0 0
9657 1 2 0 53.783686044360806 8.558299151053365 -2.2093669838132493 0 0 0
6837 1 1 0 53.96445948243151 10.109215627644533 -1.6480885406405457 0 0 0
9653 1 2 0 52.87630013089054 11.225015896986992 -2.2135165217210417 0 0 0
9658 1 2 0 55.37660585904512 10.70349650758414 -2.230032962227318 0 0 0
6840 1 1 0 56.63900781357647 11.577145080280022 -1.6462924077979726 0 0 0
13238 1 2 0 53.83926406991751 6.975157818460742 -3.0957894990285787e-07 0 0 0
9667 1 2 0 59.43631645131074 8.365582283973275 -2.2309841780740625 0 0 0
6844 1 1 0 59.41214152740047 6.797491109334401 -1.6493521832522204 0 0 0
6843 1 1 0 59.250273616194214 9.909455782595703 -1.6494547713021652 0 0 0
9663 1 2 0 57.923904621186104 10.71814607605189 -2.216087866631863 0 0 0
9668 1 2 0 60.478563677602786 10.846111546473926 -2.255100857436308 0 0 0
9673 1 2 0 62.75717769568985 11.685913691181817 -1.3396761603927105 0 0 0
6846 1 1 0 61.21040136431123 12.113434159864175 -1.4940013112495536 0 0 0
13243 1 2 0 59.20912954448333 9.802776733855318 -3.8395616537889077e-07 0 0 0
13246 1 2 0 60.50014839438463 12.30052261798487 -5.501128356665408e-08 0 0 0
9679 1 2 0 63.13173515186149 7.031478459257517 -2.2368419003195106 0 0 0
6850 1 1 0 64.10575800434968 8.201623824672028 -1.5568477000653214 0 0 0
9680 1 2 0 65.60115001716642 7.533561750207276 -1.6483054266693435 0 0 0
6857 1 1 0 67.18853529372056 7.935156670012191 -1.5551590366887296 0 0 0
6849 1 1 0 64.29578308963217 11.210102939021523 -1.500238103103478 0 0 0
9677 1 2 0 64.23257538918261 9.721601352059412 -2.267066874983656 0 0 0
9688 1 2 0 67.34296197147262 9.492422504450914 -2.1822799972429756 0 0 0
6856 1 1 0 68.33144008793928 10.743158588646907 -1.642700966565091 0 0 0
13250 1 2 0 63.573057233499966 8.440347244790669 -1.417375843863076e-07 0 0 0
13256 1 2 0 68.16230677751646 10.851906346856083 -4.333210903504411e-07 0 0 0
9686 1 2 0 68.2503151037171 12.316235348282472 -2.230888365112374 0 0 0
6864 1 1 0 73.48216844109565 8.601920697416176 -1.642139223432018 0 0 0
9701 1 2 0 73.31390356400536 7.11968428598019 -2.2706561889551757 0 0 0
9689 1 2 0 69.76707286559613 10.188700227153996 -2.2274431519798394 0 0 0
6860 1 1 0 71.24371250929877 10.520151294486354 -1.6350350081345326 0 0 0
9695 1 2 0 72.23268819658234 9.416336175196053 -2.3110722172079066 0 0 0
9692 1 2 0 71.72776271052659 12.023682700288184 -2.0873087011861053 0 0 0
9699 1 2 0 74.9008577260682 9.284015491132415 -2.116978246538884 0 0 0
6863 1 1 0 75.43987486699072 10.771187924810437 -1.6422574775572876 0 0 0
9700 1 2 0 76.94711296371142 10.867108580449564 -2.275598358686036 0 0 0
6866 1 1 0 78.43173447577989 10.53213920260277 -1.6521484210559305 0 0 0
9705 1 2 0 79.0214552462781 9.112472560014004 -2.273013189808026 0 0 0
9694 1 2 0 74.48432689619622 11.98533043483975 -2.2329333099528976 0 0 0
9702 1 2 0 79.3966325983841 11.728912002127046 -2.2011078431053304 0 0 0
13271 1 2 0 79.31654185551244 7.773463620711541 -6.049384843009855e-08 0 0 0
6871 1 1 0 79.97959373815844 8.022423509622064 -1.5008285323663515 0 0 0
9712 1 2 0 84.1211271431622 8.374844927851742 -2.272710398144638 0 0 0
9711 1 2 0 81.57635933869716 8.355068384077537 -1.3675623928255682 0 0 0
6870 1 1 0 82.93094891044638 9.242462055677692 -1.51286387920617 0 0 0
9709 1 2 0 82.3447807330182 10.576121109729472 -2.307222290870706 0 0 0
6869 1 1 0 82.55934346900834 12.070595063983871 -1.6292409918068473 0 0 0
9710 1 2 0 84.18101703936577 12.201954460246293 -1.9230547417994832 0 0 0
6880 1 1 0 85.33239053600482 7.41905117070653 -1.6458388308664829 0 0 0
9726 1 2 0 86.76682979377397 8.078394489750798 -2.138037504897996 0 0 0
6879 1 1 0 88.29477889516326 7.6533881083707795 -1.6409782277331495 0 0 0
6878 1 1 0 89.86044565264042 10.413072390238511 -1.6509850196007387 0 0 0
9724 1 2 0 89.31106902992607 8.89919370238308 -2.182351316211259 0 0 0
9722 1 2 0 88.87600697379878 11.65933266573336 -2.2048531421392643 0 0 0
13279 1 2 0 88.47353368331346 7.6297558197313755 -6.475832225324631e-07 0 0 0
6886 1 1 0 93.67930870370056 7.511921346828549 -1.6449409441624423 0 0 0
9738 1 2 0 95.21349893090891 7.269053168657883 -2.1836064966028483 0 0 0
9725 1 2 0 91.41964098641049 10.804332217864335 -2.145082289480248 0 0 0
6885 1 1 0 93.01171851723272 10.578901570668195 -1.6487874824989093 0 0 0
9735 1 2 0 93.3248095071309 9.036309499479577 -2.2061085129675093 0 0 0
9736 1 2 0 94.15844657602553 11.727746371697513 -2.1854809192667255 0 0 0
13286 1 2 0 93.57644263078926 7.520468384730154 -9.766293213165072e-08 0 0 0
6893 1 1 0 99.08533892685539 8.631429764526658 -1.6466598096073526 0 0 0
9747 1 2 0 97.78476947182335 7.707300670195578 -2.1871970630204562 0 0 0
9748 1 2 0 100.4029073530294 7.889916863816084 -2.2806696388914407 0 0 0
6899 1 1 0 101.32741241470514 6.720410714590483 -1.6419684643916446 0 1 0
9212 1 2 0 99.46901875230697 10.18504524390811 -2.1555452399327697 0 0 0
6545 1 1 0 100.4827825954679 11.429709891803558 -1.6401059865836312 0 0 0
6894 1 1 0 96.6240536525187 6.6124376824611915 -1.6441135429571712 0 0 0
13293 1 2 0 98.95944320205604 8.661953375423591 -3.9566221402316627e-07 0 0 0
13299 1 2 0 101.41493225038803 6.815417247851258 -8.298089009820981e-07 0 1 0
9199 1 2 0 11.670692076038817 12.52078562826608 -2.240621239860921 0 0 0
6540 1 1 0 8.849186834308595 15.835663889270425 -1.6475342742909371 0 0 0
6538 1 1 0 11.251477962297972 14.00249156556399 -1.6485629139378717 0 0 0
9200 1 2 0 9.793855313822887 14.583895886487596 -2.1680052724033887 0 0 0
9201 1 2 0 12.321602656748803 15.070135507596728 -2.298153600116195 0 0 0
9203 1 2 0 9.295713297126113 17.338707097113335 -2.2390904711780584 0 0 0
9225 1 2 0 12.855440367519378 17.762111900663644 -2.3283175837912995 0 0 0
9197 1 2 0 7.3797749060338695 15.357756388828113 -2.2249930482592895 1 0 0
12940 1 2 0 8.867759715195918 15.922483687410889 -2.0229231954234213e-07 0 0 0
9228 1 2 0 16.777269262188852 12.868422152696287 -2.3111459215478827 0 0 0
9230 1 2 0 17.085374027055327 15.642235142923417 -2.2786708437947434 0 0 0
6557 1 1 0 17.332451817753032 14.202816031266524 -1.5191874988832117 0 0 0
6554 1 1 0 13.112518684268139 16.312180014436723 -1.5970405750814411 0 0 0
6558 1 1 0 16.043582995934784 16.78496458990655 -1.6093839013544604 0 0 0
9224 1 2 0 14.669873229122363 15.934689291906633 -1.8584784968432357 0 0 0
9762 1 2 0 18.039147167631878 17.951353985949503 -2.152438710471203 0 0 0
12958 1 2 0 16.419769728664967 16.87187919763892 -1.4880960696005032e-07 0 0 0
9580 1 2 0 21.31646957307309 13.462394316824355 -2.2582774598197206 0 0 0
9231 1 2 0 18.94684830247569 13.965909875047627 -1.3989063845967102 0 0 0
6791 1 1 0 20.425803718649757 14.648637949768203 -1.5045218042151907 0 0 0
9582 1 2 0 20.271303509273434 16.13973166579423 -2.2661363487988626 0 0 0
6903 1 1 0 19.556871703834055 17.503749555823696 -1.6432364041003193 0 0 0
13307 1 2 0 23.51281372903287 17.88749885509839 -1.4228613887498623e-07 0 0 0
6907 1 1 0 23.758964284161003 18.042363845596828 -1.6188231810892133 0 0 0
9601 1 2 0 23.816168808787356 16.53489270293396 -2.258479217843604 0 0 0
13191 1 2 0 21.09382235258258 14.921143846209851 -1.18567330521512e-07 0 0 0
6794 1 1 0 24.48612769388145 12.452364429763316 -1.6457949815585122 0 0 0
13194 1 2 0 24.530436686997994 12.497786033559377 -1.4902161499816215e-07 0 0 0
9596 1 2 0 29.476917425627956 12.643678619449084 -2.212678518892365 0 0 0
9588 1 2 0 24.31338155220258 13.971534308611508 -2.259223104875445 0 0 0
6802 1 1 0 24.846137721939275 15.390139395231465 -1.6486614696569482 0 0 0
9600 1 2 0 26.33977606722523 15.732820581029854 -2.2337619160125106 0 0 0
6803 1 1 0 27.776541093880567 16.256927710900705 -1.6525460233414688 0 0 0
9598 1 2 0 28.89285402264744 15.223009264460554 -2.2569277414306215 0 0 0
9602 1 2 0 28.07516252009128 17.753681199851354 -2.293224686933381 0 0 0
6801 1 1 0 29.930284746337694 14.115336512784237 -1.6460916703862871 0 0 0
9599 1 2 0 31.40308798036267 14.488702048883011 -2.2510862102674194 0 0 0
6809 1 1 0 32.81810748404578 15.054562544668425 -1.6510343010869464 0 0 0
9610 1 2 0 33.92221119596041 13.973864063922656 -2.2273709375574593 0 0 0
9612 1 2 0 32.99031830872486 16.586561888815357 -2.252129946032731 0 0 0
6911 1 1 0 33.529060552488275 18.02120295690117 -1.6406140962226154 0 0 0
13311 1 2 0 33.323314319439156 18.012540521522787 -9.677162972956599e-08 0 0 0
9773 1 2 0 35.126056719938916 18.073265799145247 -2.053223270459248 0 0 0
6808 1 1 0 35.29442185889726 13.275799193717694 -1.6443298033072584 0 0 0
9622 1 2 0 38.97565744183614 13.42093273173322 -2.225263610613126 0 0 0
9611 1 2 0 36.49297493542563 14.276088674190047 -2.1733810487764074 0 0 0
6816 1 1 0 38.00896272234095 14.646925395841945 -1.644359821008595 0 0 0
9624 1 2 0 38.43913655522087 16.12623134321072 -2.241625008372198 0 0 0
6912 1 1 0 38.74518384949847 17.65853376174006 -1.6523964404057083 0 0 0
13312 1 2 0 38.707296707084666 17.61734414336727 -5.749178375522611e-08 0 0 0
9776 1 2 0 40.2567767323346 18.13379561944009 -2.172473553313518 0 0 0
9635 1 2 0 42.3521406343512 13.38479752184392 -2.2946002692687117 0 0 0
9638 1 2 0 45.43723474956253 12.591973068716234 -2.2355842509372437 0 0 0
9642 1 2 0 41.83783754207589 16.00812851749559 -2.230726271352227 0 0 0
6827 1 1 0 42.81042079249077 14.823800116954981 -1.6453979885532575 0 0 0
9640 1 2 0 44.36452978006352 15.086395808018487 -2.149371393095973 0 0 0
6826 1 1 0 45.6016113151418 14.126986937491568 -1.6436904868390245 0 0 0
13226 1 2 0 45.634388682635496 14.12263923117281 -4.344401052888525e-07 0 0 0
6923 1 1 0 41.7194548060762 17.55347899548954 -1.647192583796128 0 0 0
13323 1 2 0 41.74311907756541 17.59646678822038 -9.84572432624338e-07 0 0 0
9652 1 2 0 50.91895504573342 13.231875584101214 -2.2304547500881 0 0 0
9641 1 2 0 47.02036725836659 14.687456377453225 -2.228546398940459 0 0 0
9654 1 2 0 49.42729438118367 15.599902235121546 -2.234233107934743 0 0 0
6836 1 1 0 47.9203847753135 15.932315627011183 -1.6457649955499498 0 0 0
6835 1 1 0 50.73590101056186 14.772030216656985 -1.649202102713438 0 0 0
9656 1 2 0 47.16234739972281 17.29848218730212 -2.1857355703130494 0 0 0
13235 1 2 0 50.68436372248171 14.739994336762683 -1.9144428197576103e-07 0 0 0
9662 1 2 0 56.57571132125798 13.142217156554477 -2.2178085297748527 0 0 0
9655 1 2 0 52.00288785984925 15.613573609240529 -2.250898883641519 0 0 0
6842 1 1 0 53.452797910772276 16.070694922535264 -1.6453850739287312 0 0 0
9664 1 2 0 54.580147245422026 15.00440104169726 -2.2111082445617933 0 0 0
6841 1 1 0 56.09219032703877 14.628736284175565 -1.6487122699096486 0 0 0
9665 1 2 0 57.009310243332195 15.891994700653347 -2.200039200913329 0 0 0
13242 1 2 0 53.466472542061396 16.03286423703995 -3.072455309438659e-07 0 0 0
9666 1 2 0 53.65191349376223 17.620201457459196 -2.1731064622747733 0 0 0
9672 1 2 0 61.196589010278885 13.570008868465983 -2.2814469065279344 0 0 0
6847 1 1 0 61.00754057813531 15.091158858646713 -1.6468473790541382 0 0 0
9674 1 2 0 59.55586666433173 15.578319039791694 -2.2145322198196182 0 0 0
9675 1 2 0 62.07390279980525 16.23319758790851 -2.1782122389422067 0 0 0
6848 1 1 0 58.39909287764956 16.588897896277714 -1.6449839754151507 0 0 0
13247 1 2 0 61.09660415639606 15.046939372572023 -3.960556408610556e-07 0 0 0
9676 1 2 0 58.69621769286817 18.10255101574488 -2.2307932500928525 0 0 0
9678 1 2 0 65.03899900848155 12.520678780749844 -2.2509752340401055 0 0 0
6855 1 1 0 68.33070891371638 13.85309770766164 -1.5567201239584159 0 0 0
6853 1 1 0 65.22899001805294 14.050963175079488 -1.5680105071815673 0 0 0
9683 1 2 0 64.51777256263735 15.403296731242994 -2.2367044460807968 0 0 0
9684 1 2 0 66.8110053046554 14.457886094692663 -1.6706547885821839 0 0 0
6854 1 1 0 63.58108195438699 16.662081144531168 -1.6467642959802373 0 0 0
13253 1 2 0 64.68709607472303 13.91677545731205 -2.6104628976336522e-08 0 0 0
6859 1 1 0 73.13870855627476 12.750231186807898 -1.6390263283462003 0 0 0
9687 1 2 0 69.24581524784561 15.09100878719925 -2.2281618955845715 0 0 0
6861 1 1 0 72.88748098660133 15.73636317005499 -1.647492211528864 0 0 0
9693 1 2 0 72.97729218032207 14.23113363505308 -2.302705333738352 0 0 0
6862 1 1 0 69.93399023277993 16.512819572368198 -1.649310100070369 0 0 0
9696 1 2 0 71.51787398015382 16.503955838314067 -2.1602835018811466 0 0 0
9698 1 2 0 69.28460739462848 17.967520972418427 -2.1859879874146286 0 0 0
13262 1 2 0 69.81921250718175 16.496626213603037 -5.671829542913177e-07 0 0 0
13255 1 2 0 68.87414902970238 13.671372428779863 -1.0949915591025977e-07 0 0 0
13261 1 2 0 72.89532670866245 15.709388227716998 -8.452681873511442e-08 0 0 0
9703 1 2 0 78.81363085105447 14.314565668488392 -2.2266258034990285 0 0 0
6867 1 1 0 78.39288367129046 15.818253669343205 -1.6476796873536685 0 0 0
9697 1 2 0 74.24361312912653 16.445504594146943 -2.2333942779713563 0 0 0
6868 1 1 0 75.58993046756545 17.185075568444596 -1.647569147703751 0 0 0
9706 1 2 0 76.95533423478481 16.424890129098692 -2.2327209769412186 0 0 0
9707 1 2 0 79.62590404443256 16.745325486560453 -2.2113828836048555 0 0 0
13268 1 2 0 75.65700241460068 17.151191960123192 -1.0419541230836058e-07 0 0 0
13267 1 2 0 78.30510264855465 15.827272391703458 -9.946548438597405e-08 0 0 0
13265 1 2 0 79.82425863202525 13.337663943885078 -1.5363114922146615e-07 0 0 0
6865 1 1 0 79.89075832067873 13.191860095113471 -1.6439643433949318 0 0 0
9704 1 2 0 81.47856103262762 13.223439103327845 -2.191664473262678 0 0 0
6874 1 1 0 85.09934226718062 13.51940404105433 -1.5993215743122968 0 0 0
9717 1 2 0 84.06368202396992 14.674064861466414 -2.2073045554557016 0 0 0
9719 1 2 0 82.33686195854091 16.849232723291138 -2.2495593761988295 0 0 0
6875 1 1 0 83.73759051904914 16.194687822708865 -1.6451568198890776 0 0 0
9720 1 2 0 85.05187763258935 16.96296188566202 -2.244538985236655 0 0 0
6876 1 1 0 80.94803385264848 17.536406045937195 -1.6473826077006961 0 0 0
9718 1 2 0 86.58733008863031 13.219271835195597 -2.257397514293197 0 0 0
6877 1 1 0 88.13626776094475 13.04765933108379 -1.6485068100779305 0 0 0
9723 1 2 0 88.93537769108438 14.413025717247491 -2.1544979621771074 0 0 0
6883 1 1 0 89.04471468444275 15.990250129838905 -1.6475187619112133 0 0 0
9732 1 2 0 87.78820346213779 16.927246746360655 -2.214963551048079 0 0 0
9733 1 2 0 90.47640825343913 16.57117552228397 -2.2500942613271433 0 0 0
13274 1 2 0 85.35360414959585 13.864261893689322 -1.315205806392769e-07 0 0 0
6884 1 1 0 86.40700353704257 17.65262277953793 -1.6450183213768288 0 0 0
13284 1 2 0 86.4673410897876 17.62711502412919 -5.52020338235065e-07 0 0 0
13283 1 2 0 89.03679828050974 16.047165224921233 -1.1829536330476072e-07 0 0 0
6890 1 1 0 95.30049835255092 12.875291286335397 -1.6474473557303007 0 0 0
6891 1 1 0 94.7259781281568 15.949329144522443 -1.6467857384751157 0 0 0
9743 1 2 0 95.04705060270403 14.422062333547466 -2.2055939677049214 0 0 0
6892 1 1 0 91.94664544604016 17.026157557153613 -1.6455426215267723 0 0 0
9744 1 2 0 93.16232973304118 16.068844547171253 -2.179121317617422 0 0 0
9745 1 2 0 95.68152975992676 17.212775737282577 -2.201738778256453 0 0 0
9211 1 2 0 96.90140047805417 12.692005180220182 -2.150163751519262 0 0 0
9209 1 2 0 99.63690188946066 12.750563648389303 -2.150698725009136 0 0 0
6544 1 1 0 98.271891050318 13.527331795749754 -1.6441907220618017 0 0 0
9210 1 2 0 98.52271771895465 15.080327458195795 -2.2082683522691435 0 0 0
6546 1 1 0 99.30198207822427 16.449441224957933 -1.6459851150299607 0 0 0
9207 1 2 0 100.86796642669304 16.67818072267263 -2.200818367591101 0 0 0
9213 1 2 0 98.35156533945627 17.723573309325428 -2.134780380566664 0 0 0
12944 1 2 0 98.18307446444275 13.596434457145454 -3.85217186785573e-07 0 0 0
6594 1 1 0 9.58075019999787 18.86417547165746 -1.6330662551690511 0 0 0
9286 1 2 0 8.551690008760861 20.0222470308805 -2.2211651737139273 0 0 0
9287 1 2 0 11.025462763220398 19.542212489780972 -2.051886823115523 0 0 0
6596 1 1 0 12.5882046840427 19.233272595246067 -1.6396484916330964 0 0 0
6595 1 1 0 8.331727316438638 21.564486626442072 -1.6454769470760748 0 0 0
9288 1 2 0 9.341735144783774 22.745642222472878 -2.2240249243581895 0 0 0
12996 1 2 0 12.791861732803644 19.21829167710495 -6.931841201797681e-07 0 0 0
12994 1 2 0 9.443957425661985 18.73211595617641 -3.0473741607923947e-07 0 0 0
12995 1 2 0 8.461757612450628 21.5575162510465 -1.255895419111125e-08 0 0 0
9332 1 2 0 12.95507990401958 22.944130054337723 -2.1276888151634026 0 0 0
9232 1 2 0 15.710908872140148 18.417776227591972 -2.0368089996995224 0 0 0
9289 1 2 0 13.579979012283198 20.390857212426845 -2.281454833463599 0 0 0
6904 1 1 0 17.122479711988312 19.253101400374305 -1.6307189954034915 0 0 0
6626 1 1 0 14.058815710730244 21.83722721358847 -1.6368000846728756 0 0 0
9334 1 2 0 15.506482895297728 22.410595349434924 -2.1772396675673384 0 0 0
6979 1 1 0 17.073557052346565 22.295568176567173 -1.64731015184994 0 0 0
9764 1 2 0 17.50108454726894 20.76552696484603 -2.2416859633764994 0 0 0
9876 1 2 0 17.868976476524633 23.68672879433576 -2.173490295783365 0 0 0
9763 1 2 0 20.142223364711377 18.918704095429874 -2.2413790008743875 0 0 0
9768 1 2 0 22.58811660012499 18.943520291036286 -2.3058802045241356 0 0 0
6908 1 1 0 21.350568062792302 19.80327935377954 -1.6429363157592125 0 0 0
9770 1 2 0 21.079729995752334 21.38504692893479 -2.090353854490893 0 0 0
6973 1 1 0 22.375159391498904 22.325965477533035 -1.6342626361068724 0 0 0
9784 1 2 0 23.576978295500528 21.399555132934957 -2.250223237075934 0 0 0
9867 1 2 0 22.46321738421626 23.817048036479985 -2.297475279612181 0 0 0
9769 1 2 0 25.087907807342088 18.972536439404085 -1.9753285073502775 0 0 0
6917 1 1 0 24.851058847572055 20.58085227448767 -1.632980801174902 0 0 0
9781 1 2 0 28.42051974477322 20.510536523313313 -2.2484843729792994 0 0 0
6916 1 1 0 28.752010145217973 19.054424842796923 -1.5499249600223939 0 0 0
9783 1 2 0 26.050824346223237 21.399099748035898 -2.3310557659095013 0 0 0
6918 1 1 0 27.487436188817217 21.725637438295788 -1.6471691156968888 0 0 0
13317 1 2 0 24.811773785164373 20.75707519735483 -4.774646424061227e-07 0 0 0
9785 1 2 0 27.744796496192738 23.219840385972365 -2.2490880665484183 0 0 0
13318 1 2 0 27.529244763598044 21.824548007658777 -2.765067822936517e-07 0 0 0
9782 1 2 0 30.38560578203304 18.938583550044765 -1.6218431039662677 0 0 0
6922 1 1 0 31.513989160252617 20.154245029102373 -1.5631269956517269 0 0 0
9774 1 2 0 32.80329123840959 19.38213450028816 -2.2767214222011414 0 0 0
9791 1 2 0 30.925204047891036 21.54125641009274 -2.284953268315422 0 0 0
13322 1 2 0 31.9320764269793 20.540472400677636 -1.519162222535368e-07 0 0 0
6974 1 1 0 30.891536329083973 23.048357674846695 -1.5389346914684896 0 0 0
9868 1 2 0 32.489032504724015 23.356761272719908 -1.5496103110527024 0 0 0
9870 1 2 0 34.99566815860433 23.47802659603689 -2.243824154549815 0 0 0
9775 1 2 0 37.66233282214769 18.781104172278386 -2.2329184476650252 0 0 0
6913 1 1 0 36.18473418903677 19.264885034237945 -1.6326736192302562 0 0 0
9777 1 2 0 35.47555910912664 20.675856992246988 -2.178507880995971 0 0 0
6975 1 1 0 35.89958466154595 22.197512924014216 -1.643483675639301 0 0 0
9871 1 2 0 37.47739794878656 22.13977728813906 -2.1503936629315996 0 0 0
9886 1 2 0 40.17619227720307 21.80549025374796 -2.161784371561834 0 0 0
6988 1 1 0 38.90747310817478 22.767518544648496 -1.6418747612045739 0 0 0
9792 1 2 0 43.0614440791376 18.351352247432924 -2.1929915738009145 0 0 0
9798 1 2 0 42.994966594823765 20.93335046257835 -2.1955701777745813 0 0 0
6927 1 1 0 43.94337876501559 19.649897182271705 -1.6482045883246885 0 0 0
9796 1 2 0 45.54697466165398 19.50274446560473 -2.1854535374035264 0 0 0
6987 1 1 0 41.77849405215332 21.940872226320838 -1.646636855373333 0 0 0
9887 1 2 0 42.112633976614724 23.43667614969971 -2.2400556007583496 0 0 0
13327 1 2 0 44.01737475370344 19.724244850919536 -3.42955688490242e-07 0 0 0
6926 1 1 0 47.025711738676335 18.861315800057536 -1.645208206322613 0 0 0
9797 1 2 0 48.4810154120061 19.507806218822395 -2.181520559187966 0 0 0
9804 1 2 0 51.41331218764507 19.198914952591142 -2.1738619195636706 0 0 0
6932 1 1 0 50.0038468535374 19.955367304379287 -1.6475549821186866 0 0 0
9806 1 2 0 50.14519908158963 21.471846979055563 -2.2606666601138783 0 0 0
13332 1 2 0 49.9815883032541 19.861394681266688 -2.982107288303277e-07 0 0 0
6989 1 1 0 50.482140292282935 22.943611171945687 -1.6474724172971378 0 0 0
13389 1 2 0 50.422872642328926 22.944858448105894 -1.226153663957774e-07 0 0 0
9889 1 2 0 49.316170424026794 23.935224202894673 -2.2611885003080747 0 0 0
6931 1 1 0 53.00282581742165 19.050742672881672 -1.6463512845336983 0 0 0
9805 1 2 0 54.12605508549295 20.155409794267424 -2.2045464349065655 0 0 0
6939 1 1 0 55.57494874555699 20.763929528281167 -1.6481679926326624 0 0 0
9814 1 2 0 56.96152879101702 20.02876335012077 -2.187507856540502 0 0 0
9816 1 2 0 55.70214165211001 22.28890363236031 -2.248989567724543 0 0 0
9890 1 2 0 52.00847375386133 23.322540896776964 -2.1657739159022036 0 0 0
6997 1 1 0 55.809096694358125 23.809595966024386 -1.6466637589126165 0 0 0
13397 1 2 0 55.836689355531334 23.797379793480673 -3.652620478828521e-07 0 0 0
13331 1 2 0 52.957356437585084 19.136893902403184 -6.260704670468995e-08 0 0 0
6938 1 1 0 58.483834972932264 19.641845072564845 -1.6486780019666183 0 0 0
9815 1 2 0 59.71508267499498 20.630657311909996 -2.1978161311911353 0 0 0
9824 1 2 0 62.45218628504057 20.595833307325343 -2.1807478413205645 0 0 0
6945 1 1 0 61.09229465106085 21.418547509276447 -1.6490823760241828 0 0 0
13345 1 2 0 61.08647464222546 21.41579768750968 -9.475620612675664e-07 0 0 0
9826 1 2 0 61.098156265675186 23.010999099389696 -2.1749666178844285 0 0 0
13338 1 2 0 58.524454780558806 19.677469783299312 -7.403394761347021e-08 0 0 0
9685 1 2 0 63.88800672939832 18.21306854228141 -2.2031537484760726 0 0 0
6944 1 1 0 63.82978778446678 19.80369356026892 -1.6497478051116818 0 0 0
9825 1 2 0 65.17116667265985 20.650120729948167 -2.1785565567631546 0 0 0
9828 1 2 0 67.83908051644028 20.352085266714607 -2.1910914335965996 0 0 0
6948 1 1 0 66.6024800917891 21.33986164880876 -1.6489247993673086 0 0 0
9830 1 2 0 66.79822578443182 22.927062075835813 -2.17969751008424 0 0 0
13344 1 2 0 63.81687873942823 19.777269098949727 -3.136602976478553e-07 0 0 0
13348 1 2 0 66.61103447993715 21.359398056569216 -4.887041504237739e-07 0 0 0
6947 1 1 0 69.2045577724654 19.559273213931487 -1.6490119370139005 0 0 0
9829 1 2 0 70.50651203980235 20.44316044467566 -2.1952098823445656 0 0 0
9834 1 2 0 73.15343249255777 20.492558648770075 -2.2248362292665913 0 0 0
6952 1 1 0 71.81429280512609 21.30485502257006 -1.6502216188132681 0 0 0
9836 1 2 0 71.77373932352306 22.885756534364216 -2.1989503486581525 0 0 0
6951 1 1 0 74.65718850617621 20.10775659796827 -1.6415427746863622 0 0 0
9708 1 2 0 75.38666148633341 18.730246600988156 -2.207034966973086 0 0 0
9835 1 2 0 75.65926745069622 21.30719315235419 -2.1582880861839744 0 0 0
9840 1 2 0 78.27566650142307 20.5367543939365 -2.181092119811261 0 0 0
6956 1 1 0 77.17830545102329 21.6688567633372 -1.644634316595114 0 0 0
13351 1 2 0 74.54667657618242 20.001952077380412 -1.7337701599114166e-07 0 0 0
9842 1 2 0 77.43699339566778 23.192139274955977 -2.2296160853637073 0 0 0
13356 1 2 0 77.2486939668756 21.684044269389215 -8.502309454672223e-07 0 0 0
6955 1 1 0 79.84284752830384 20.35229240288494 -1.646038093882706 0 0 0
9721 1 2 0 80.69817844019035 19.065461879637056 -2.2263107328105183 0 0 0
9841 1 2 0 80.64190945932808 21.64547146809696 -2.2419986899348654 0 0 0
13355 1 2 0 79.85247809537464 20.27784034091639 -4.963317861184652e-07 0 0 0
6961 1 1 0 81.36953118358053 22.975735158979138 -1.6498122018966421 0 0 0
9850 1 2 0 82.87416428443466 22.946185370120894 -2.2893290643271524 0 0 0
6962 1 1 0 84.36757772223845 23.00472389324793 -1.6504029284884276 0 0 0
13361 1 2 0 81.38974933591086 22.9847930372163 -3.97876144165596e-07 0 0 0
9848 1 2 0 85.18664600808162 21.698713210403476 -2.2459694012997127 0 0 0
13362 1 2 0 84.35049328978448 22.951177306770358 -3.2384033538811766e-07 0 0 0
9734 1 2 0 86.13831407596355 19.165566549354704 -2.211179161372334 0 0 0
6960 1 1 0 86.32543806799542 20.684247470135713 -1.6472280304996676 0 0 0
9849 1 2 0 87.7776904923925 21.058194673373382 -2.3235984190280248 0 0 0
9856 1 2 0 90.23942210011086 19.82373051352324 -2.1941700068698125 0 0 0
6966 1 1 0 89.24201987047373 20.98355165954325 -1.6234340964398206 0 0 0
9858 1 2 0 89.9281265108974 22.436948251724953 -2.0357991355997926 0 0 0
13360 1 2 0 86.29157926714348 20.75449072767628 -3.663759068388297e-08 0 0 0
9947 1 2 0 87.48278077831306 23.760481677670807 -2.2148976545385963 0 0 0
7026 1 1 0 89.00539845257245 23.740563757594185 -1.6244021318776987 0 0 0
13426 1 2 0 88.86542731954346 23.75036474237835 -4.0774373181388167e-07 0 0 0
9746 1 2 0 92.44848539677189 18.502863988459954 -2.2113515106698687 0 0 0
6965 1 1 0 91.8137018424327 19.896587422181888 -1.6498969256820268 0 0 0
9857 1 2 0 92.56941091836669 21.213564022141917 -2.2894995497071973 0 0 0
6971 1 1 0 92.83585579746219 22.663204953451604 -1.5432926555217807 0 0 0
9864 1 2 0 94.45039684568862 22.84861328435976 -1.5275516300398801 0 0 0