ITEM: TIMESTEP
1262
ITEM: NUMBER OF ATOMS
15828
ITEM: BOX BOUNDS pp pp pp
0.0000000000000000e+00 2.0636684016445710e+02
0.0000000000000000e+00 1.7843359541307166e+02
-1.0000000000000000e+02 1.0000000000000000e+02
ITEM: ATOMS id type element x y z v_uncoordination
1 1 Si 201.403 0.984744 1.63183 0
2 1 Si 202.366 176.378 1.61891 0
3 1 Si 198.229 0.937044 1.62634 0
4 1 Si 199.615 174.629 1.62168 0
5 1 Si 196.885 176.437 1.61859 0
6 1 Si 203.227 3.61729 1.63873 0
7 1 Si 206.353 3.19482 1.64428 0
8 1 Si 1.01697 0.215848 1.63055 0
9 1 Si 205.553 176.006 1.62478 0
10 1 Si 199.147 6.47661 1.63165 0
11 1 Si 197.198 3.9223 1.61923 0
12 1 Si 202.308 6.69777 1.61826 0
13 1 Si 146.663 41.9969 1.62257 0
14 1 Si 147.474 38.8438 1.64218 0
15 1 Si 143.336 42.5739 1.62514 0
16 1 Si 145.374 36.3054 1.63389 0
17 1 Si 142.119 36.7404 1.62902 0
18 1 Si 141.144 39.979 1.63037 0
19 1 Si 149.218 44.2079 1.62652 0
20 1 Si 150.641 38.2949 1.64646 0
21 1 Si 152.966 40.3823 1.61283 0
22 1 Si 152.419 43.4765 1.63689 0
23 1 Si 142.428 45.7924 1.64661 0
24 1 Si 148.432 47.365 1.63162 0
25 1 Si 145.103 47.9193 1.63947 0
26 1 Si 197.615 29.5561 1.62664 0
27 1 Si 198.987 26.7511 1.61713 0
28 1 Si 194.526 29.3376 1.61838 0
29 1 Si 193.604 24.0405 1.63885 0
30 1 Si 196.881 24.218 1.62097 0
31 1 Si 192.429 27.0023 1.64725 0
32 1 Si 198.876 32.4844 1.62189 0
33 1 Si 202.072 33.088 1.62689 0
34 1 Si 202.26 27.1856 1.64877 0
35 1 Si 203.759 30.2222 1.62513 0
36 1 Si 196.113 34.1086 1.63407 0
37 1 Si 193.494 32.2927 1.60594 0
38 1 Si 114.449 32.3746 1.6149 0
39 1 Si 114.121 29.1127 1.61056 0
40 1 Si 111.048 32.9411 1.61728 0
41 1 Si 111.121 27.8414 1.60734 0
42 1 Si 108.844 30.2119 1.64004 0
43 1 Si 117.293 34.6127 1.64191 0
44 1 Si 123.114 30.8633 1.61797 0
45 1 Si 121.882 27.9884 1.621 0
46 1 Si 120.867 33.7034 1.6222 0
47 1 Si 116.064 26.576 1.62388 0
48 1 Si 119.186 26.4446 1.60773 0
49 1 Si 110.305 36.2292 1.62934 0
50 1 Si 116.471 38.0606 1.63307 0
51 1 Si 113.006 38.4601 1.63299 0
52 1 Si 126.578 29.7288 1.62401 0
53 1 Si 126.741 24.5879 1.6241 0
54 1 Si 123.636 25.3508 1.62179 0
55 1 Si 128.907 27.0871 1.6103 0
56 1 Si 128.213 32.4199 1.63002 0
57 1 Si 126.109 34.8744 1.6103 0
58 1 Si 123.167 36.1257 1.62533 0
59 1 Si 131.412 33.02 1.61791 0
60 1 Si 131.017 36.1608 1.62792 0
61 1 Si 128.105 37.2516 1.63183 0
62 1 Si 163.391 33.5472 1.61912 0
63 1 Si 162.786 36.9337 1.61969 0
64 1 Si 161.236 30.6998 1.66127 0
65 1 Si 159.269 32.9819 1.58991 0
66 1 Si 159.931 36.0022 1.61077 0
67 1 Si 166.645 34.0277 1.62245 0
68 1 Si 167.939 37.4004 1.62419 0
69 1 Si 168.319 31.0131 1.61214 0
70 1 Si 171.749 31.0962 1.60228 0
71 1 Si 174.294 33.0925 1.61429 0
72 1 Si 173.738 36.1896 1.59709 0
73 1 Si 171.197 38.0673 1.64964 0
74 1 Si 163.176 40.2568 1.63564 0
75 1 Si 166.425 40.4798 1.63247 0
76 1 Si 107.042 2.86835 1.64217 0
77 1 Si 104.825 5.3191 1.64768 0
78 1 Si 110.283 3.42165 1.63581 0
79 1 Si 111.337 6.46333 1.64563 0
80 1 Si 105.983 8.37437 1.64035 0
81 1 Si 109.173 8.88127 1.62951 0
82 1 Si 106.024 178.204 1.64818 0
83 1 Si 101.542 4.84517 1.63168 0
84 1 Si 100.545 1.57856 1.63346 0
85 1 Si 102.814 177.532 1.65213 0
86 1 Si 112.487 1.06572 1.6301 0
87 1 Si 111.39 176.512 1.6418 0
88 1 Si 108.267 175.825 1.64678 0
89 1 Si 115.727 1.15218 1.6129 0
90 1 Si 116.777 4.34345 1.63118 0
91 1 Si 114.549 6.92122 1.62499 0
92 1 Si 116.403 176.316 1.62056 0
93 1 Si 122.982 4.16992 1.61983 0
94 1 Si 119.908 5.39591 1.60495 0
95 1 Si 123.76 0.924424 1.63619 0
96 1 Si 121.899 176.428 1.61644 0
97 1 Si 119.038 174.452 1.63043 0
98 1 Si 113.761 174.39 1.61991 0
99 1 Si 125.066 6.83436 1.61633 0
100 1 Si 120.28 8.67379 1.6161 0
101 1 Si 123.357 9.60554 1.63082 0
102 1 Si 127.039 0.640622 1.61543 0
103 1 Si 128.463 176.273 1.62097 0
104 1 Si 127.026 173.607 1.61629 0
105 1 Si 123.92 173.987 1.62403 0
106 1 Si 129.929 2.04135 1.64027 0
107 1 Si 130.513 5.14744 1.6152 0
108 1 Si 128.285 7.47309 1.61689 0
109 1 Si 132.422 0.0251602 1.60793 0
110 1 Si 131.479 175.529 1.62363 0
111 1 Si 135.921 3.70257 1.62885 0
112 1 Si 135.575 0.244539 1.59646 0
113 1 Si 133.555 6.20343 1.61186 0
114 1 Si 141.658 3.14659 1.61722 0
115 1 Si 138.864 5.03586 1.61493 0
116 1 Si 143.715 5.63424 1.61603 0
117 1 Si 138.868 8.48035 1.61631 0
118 1 Si 142.168 8.55024 1.62355 0
119 1 Si 142.807 0.0116671 1.63021 0
120 1 Si 138.799 173.507 1.61999 0
121 1 Si 136.072 175.255 1.62687 0
122 1 Si 141.439 175.504 1.59648 0
123 1 Si 148.66 2.49225 1.6133 0
124 1 Si 146.938 5.22745 1.64306 0
125 1 Si 148.67 177.696 1.61689 0
126 1 Si 145.628 176.88 1.62102 0
127 1 Si 151.808 2.71902 1.62907 0
128 1 Si 153.691 5.20422 1.62652 0
129 1 Si 152.062 7.85771 1.63104 0
130 1 Si 148.827 7.86795 1.63065 0
131 1 Si 153.734 0.264179 1.60966 0
132 1 Si 151.632 176.24 1.6212 0
133 1 Si 156.873 4.86143 1.61641 0
134 1 Si 158.994 7.37639 1.64982 0
135 1 Si 157.374 10.2697 1.62165 0
136 1 Si 154.188 10.2221 1.62981 0
137 1 Si 156.71 1.62564 1.63403 0
138 1 Si 163.868 3.82372 1.63164 0
139 1 Si 162.337 6.94155 1.62796 0
140 1 Si 162.433 0.763707 1.61735 0
141 1 Si 159.312 178.256 1.61722 0
142 1 Si 167.212 3.52711 1.6416 0
143 1 Si 168.946 6.42716 1.64085 0
144 1 Si 164.151 9.81569 1.63856 0
145 1 Si 167.472 9.45176 1.64692 0
146 1 Si 168.686 0.448689 1.63649 0
147 1 Si 167.047 175.855 1.63458 0
148 1 Si 163.79 176.154 1.62754 0
149 1 Si 173.808 3.38503 1.642 0
150 1 Si 172.297 6.34446 1.64401 0
151 1 Si 172.018 0.525179 1.6388 0
152 1 Si 177.149 3.38795 1.63844 0
153 1 Si 178.952 6.24471 1.62971 0
154 1 Si 174.122 9.14777 1.64067 0
155 1 Si 177.456 9.20784 1.63651 0
156 1 Si 178.612 0.399133 1.6494 0
157 1 Si 173.519 176.008 1.64881 0
158 1 Si 176.873 176.013 1.63687 0
159 1 Si 183.519 3.08581 1.62785 0
160 1 Si 182.265 6.14945 1.63789 0
161 1 Si 181.915 0.228699 1.64544 0
162 1 Si 186.691 2.74153 1.62488 0
163 1 Si 188.756 5.13695 1.61768 0
164 1 Si 187.653 8.13865 1.62588 0
165 1 Si 184.454 8.66848 1.61322 0
166 1 Si 188.377 178.433 1.62369 0
167 1 Si 183.656 175.829 1.63847 0
168 1 Si 186.958 175.609 1.62663 0
169 1 Si 191.555 3.47231 1.62065 0
170 1 Si 194.347 8.25585 1.60094 0
171 1 Si 194.242 5.09179 1.62701 0
172 1 Si 192.642 10.9272 1.64845 0
173 1 Si 189.461 10.8095 1.61601 0
174 1 Si 191.58 0.193332 1.61773 0
175 1 Si 197.394 9.04197 1.60571 0
176 1 Si 204.348 9.27597 1.65393 0
177 1 Si 197.598 12.1544 1.62455 0
178 1 Si 203.426 12.4002 1.63626 0
179 1 Si 200.388 13.61 1.6252 0
180 1 Si 2.0146 5.61965 1.63476 0
181 1 Si 1.18969 8.66205 1.62871 0
182 1 Si 5.15613 5.19943 1.63399 0
183 1 Si 4.21194 9.88134 1.62252 0
184 1 Si 6.77457 7.90648 1.62563 0
185 1 Si 6.25189 2.24182 1.63888 0
186 1 Si 4.14498 178.223 1.62813 0
187 1 Si 115.041 10.1638 1.63725 0
188 1 Si 118.092 11.0596 1.63898 0
189 1 Si 133.203 9.57726 1.62153 0
190 1 Si 129.847 10.4059 1.61972 0
191 1 Si 136.298 11.0677 1.63017 0
192 1 Si 144.142 11.1366 1.6329 0
193 1 Si 147.428 10.725 1.62955 0
194 1 Si 157.791 13.5422 1.62485 0
195 1 Si 163.156 13.061 1.61679 0
196 1 Si 160.561 15.1204 1.62362 0
197 1 Si 169.357 12.2046 1.6473 0
198 1 Si 172.606 12.0634 1.64381 0
199 1 Si 179.052 12.1348 1.62473 0
200 1 Si 184.683 11.9384 1.62375 0
201 1 Si 181.993 13.5919 1.62564 0
202 1 Si 194.652 13.4528 1.61376 0
203 1 Si 104.382 11.2238 1.62002 0
204 1 Si 99.6459 7.73149 1.62916 0
205 1 Si 100.985 11.0969 1.62932 0
206 1 Si 109.861 12.0403 1.61516 0
207 1 Si 106.92 13.5046 1.61204 0
208 1 Si 113.061 12.7622 1.6187 0
209 1 Si 124.298 12.7613 1.63608 0
210 1 Si 127.715 13.1082 1.62589 0
211 1 Si 136.817 14.6336 1.62313 0
212 1 Si 142.948 14.1496 1.65023 0
213 1 Si 140.012 15.7659 1.61863 0
214 1 Si 152.974 13.0876 1.63213 0
215 1 Si 149.807 12.8946 1.62856 0
216 1 Si 155.148 15.4089 1.61396 0
217 1 Si 165.125 15.6655 1.63478 0
218 1 Si 168.276 15.3049 1.63267 0
219 1 Si 174.267 14.8905 1.63578 0
220 1 Si 177.431 14.8999 1.63682 0
221 1 Si 187.625 13.4391 1.61353 0
222 1 Si 205.775 14.6438 1.62816 0
223 1 Si 2.63702 14.7951 1.616 0
224 1 Si 5.27032 12.8497 1.62061 0
225 1 Si 118.412 14.3011 1.61623 0
226 1 Si 115.141 15.3686 1.62637 0
227 1 Si 121.737 15.1142 1.63212 0
228 1 Si 128.472 16.3275 1.62225 0
229 1 Si 134.692 17.4535 1.62145 0
230 1 Si 131.425 17.7865 1.61817 0
231 1 Si 145.716 15.7228 1.63038 0
232 1 Si 148.894 15.808 1.63482 0
233 1 Si 164.052 18.7575 1.63775 0
234 1 Si 160.859 18.5138 1.61449 0
235 1 Si 169.992 18.095 1.63216 0
236 1 Si 173.182 17.9366 1.63534 0
237 1 Si 179.136 17.6227 1.63174 0
238 1 Si 182.179 16.8404 1.60913 0
239 1 Si 188.874 16.4908 1.62539 0
240 1 Si 194.464 16.6951 1.63655 0
241 1 Si 191.677 18.2108 1.61738 0
242 1 Si 199.808 16.7236 1.61338 0
243 1 Si 205.103 17.7608 1.61413 0
244 1 Si 202.195 18.7741 1.62637 0
245 1 Si 3.52992 17.8924 1.62634 0
246 1 Si 6.6213 18.5833 1.60895 0
247 1 Si 8.64233 13.3132 1.62084 0
248 1 Si 9.0715 16.4916 1.62362 0
249 1 Si 113.819 18.4634 1.62712 0
250 1 Si 110.173 19.1163 1.61874 0
251 1 Si 107.462 16.8204 1.6254 0
252 1 Si 202.015 39.0003 1.6392 0
253 1 Si 198.704 39.1189 1.61556 0
254 1 Si 203.662 36.1004 1.61678 0
255 1 Si 195.971 37.2415 1.6153 0
256 1 Si 203.908 41.7293 1.6269 0
257 1 Si 197.195 41.9282 1.62076 0
258 1 Si 198.489 44.8325 1.6298 0
259 1 Si 203.724 44.9306 1.62861 0
260 1 Si 201.147 46.5893 1.60869 0
261 1 Si 0.678418 36.6272 1.63169 0
262 1 Si 2.66251 39.4725 1.61949 0
263 1 Si 0.735125 41.937 1.63553 0
264 1 Si 122.56 18.3475 1.63972 0
265 1 Si 125.989 18.6232 1.62671 0
266 1 Si 140.343 19.0748 1.61968 0
267 1 Si 135.508 20.8031 1.62308 0
268 1 Si 138.613 21.8886 1.61823 0
269 1 Si 145.793 18.7399 1.62957 0
270 1 Si 143.206 20.3421 1.63722 0
271 1 Si 151.152 18.073 1.62462 0
272 1 Si 154.325 18.5219 1.63429 0
273 1 Si 168.813 21.1171 1.6308 0
274 1 Si 165.642 21.6763 1.62197 0
275 1 Si 175.09 20.587 1.62939 0
276 1 Si 178.278 20.708 1.63184 0
277 1 Si 183.993 19.4743 1.63115 0
278 1 Si 187.095 19.1119 1.61252 0
279 1 Si 197.176 18.4571 1.61577 0
280 1 Si 1.06419 19.9191 1.61603 0
281 1 Si 104.095 21.0331 1.6113 0
282 1 Si 104.469 17.9142 1.62079 0
283 1 Si 101.005 20.4192 1.64202 0
284 1 Si 101.358 17.1983 1.64873 0
285 1 Si 116.368 20.8039 1.62833 0
286 1 Si 109.063 22.4237 1.61745 0
287 1 Si 114.658 23.6682 1.60647 0
288 1 Si 111.493 24.5811 1.6325 0
289 1 Si 119.936 20.7102 1.63445 0
290 1 Si 148.678 19.8648 1.63401 0
291 1 Si 156.11 21.3607 1.63986 0
292 1 Si 159.482 21.6498 1.63359 0
293 1 Si 174.021 23.5424 1.6226 0
294 1 Si 170.835 23.5811 1.63893 0
295 1 Si 180.135 23.4616 1.62957 0
296 1 Si 183.266 22.6449 1.61689 0
297 1 Si 188.41 22.0133 1.609 0
298 1 Si 191.553 21.5106 1.63156 0
299 1 Si 198.362 21.4552 1.6334 0
300 1 Si 201.538 21.8264 1.62493 0
301 1 Si 0.387886 23.102 1.62974 0
302 1 Si 2.90175 25.063 1.62324 0
303 1 Si 6.03019 24.1964 1.63355 0
304 1 Si 7.78007 21.5692 1.62505 0
305 1 Si 105.836 23.6748 1.64281 0
306 1 Si 127.584 21.4657 1.63527 0
307 1 Si 120.904 23.7774 1.61746 0
308 1 Si 130.722 20.9396 1.60922 0
309 1 Si 133.088 23.0952 1.62775 0
310 1 Si 145.189 22.8197 1.63621 0
311 1 Si 143.59 25.472 1.60653 0
312 1 Si 140.175 25.0473 1.62339 0
313 1 Si 148.417 22.8696 1.63427 0
314 1 Si 151.158 24.4691 1.60418 0
315 1 Si 154.426 24.168 1.64332 0
316 1 Si 161.236 24.7953 1.61916 0
317 1 Si 164.683 24.9573 1.62599 0
318 1 Si 175.662 26.3262 1.63779 0
319 1 Si 178.96 26.6102 1.65062 0
320 1 Si 186.086 24.286 1.63091 0
321 1 Si 203.663 24.2361 1.63694 0
322 1 Si 103.742 26.4624 1.65156 0
323 1 Si 100.143 26.0112 1.63101 0
324 1 Si 98.8093 22.8056 1.63685 0
325 1 Si 132.437 26.4181 1.65033 0
326 1 Si 146.163 27.6912 1.62717 0
327 1 Si 149.562 27.27 1.6 0
328 1 Si 155.987 27.0227 1.6231 0
329 1 Si 159.442 27.6909 1.63086 0
330 1 Si 11.396 5.05878 1.64434 0
331 1 Si 9.99199 8.08178 1.63359 0
332 1 Si 9.48025 2.11489 1.62125 0
333 1 Si 14.7326 5.52678 1.63062 0
334 1 Si 16.5504 8.54236 1.64138 0
335 1 Si 14.7731 11.575 1.64355 0
336 1 Si 11.3062 11.1508 1.62214 0
337 1 Si 16.2729 2.60741 1.63044 0
338 1 Si 12.412 176.26 1.62406 0
339 1 Si 9.37383 177.109 1.63059 0
340 1 Si 15.142 177.954 1.62046 0
341 1 Si 21.5212 5.40989 1.63179 0
342 1 Si 20.1291 8.44081 1.62388 0
343 1 Si 19.5183 2.83808 1.63142 0
344 1 Si 170.199 26.6304 1.61982 0
345 1 Si 167.147 27.6934 1.62137 0
346 1 Si 24.8183 4.77395 1.63952 0
347 1 Si 27.3122 6.84675 1.63654 0
348 1 Si 22.8762 10.636 1.61819 0
349 1 Si 26.3114 9.99338 1.62537 0
350 1 Si 26.2042 1.83927 1.62354 0
351 1 Si 24.0581 178.075 1.63802 0
352 1 Si 21.0038 0.0703448 1.63136 0
353 1 Si 30.4766 5.68942 1.63567 0
354 1 Si 31.6253 2.5841 1.63331 0
355 1 Si 29.178 0.608136 1.63531 0
356 1 Si 173.029 28.1737 1.60254 0
357 1 Si 36.9123 3.42567 1.61113 0
358 1 Si 36.0534 6.48979 1.63528 0
359 1 Si 34.6226 1.09883 1.6394 0
360 1 Si 33.0149 7.67425 1.64752 0
361 1 Si 40.1493 4.04677 1.61558 0
362 1 Si 41.7255 6.99428 1.60993 0
363 1 Si 38.7297 8.28317 1.63771 0
364 1 Si 41.6089 1.31065 1.63421 0
365 1 Si 40.3113 176.773 1.61447 0
366 1 Si 38.0837 174.39 1.64235 0
367 1 Si 35.2274 176.168 1.63585 0
368 1 Si 186.558 27.5274 1.62602 0
369 1 Si 184.185 29.8787 1.61014 0
370 1 Si 180.861 29.532 1.61426 0
371 1 Si 44.8227 1.53039 1.58819 0
372 1 Si 47.9347 2.70025 1.64255 0
373 1 Si 49.6504 5.67508 1.61953 0
374 1 Si 48.0238 8.63945 1.61542 0
375 1 Si 44.5474 9.06868 1.62884 0
376 1 Si 43.4448 177.063 1.61288 0
377 1 Si 189.653 28.5989 1.61741 0
378 1 Si 49.6644 178.415 1.63195 0
379 1 Si 45.0519 174.479 1.62218 0
380 1 Si 47.9502 175.737 1.62426 0
381 1 Si 53.1397 6.17348 1.62437 0
382 1 Si 55.1098 8.91538 1.61769 0
383 1 Si 50.374 11.2803 1.64099 0
384 1 Si 53.8436 11.8326 1.63158 0
385 1 Si 55.7142 4.13493 1.62868 0
386 1 Si 55.535 0.842566 1.62449 0
387 1 Si 52.7442 177.565 1.63366 0
388 1 Si 58.655 5.74383 1.62565 0
389 1 Si 58.4359 8.99455 1.62191 0
390 1 Si 61.3268 0.946624 1.61269 0
391 1 Si 61.5363 4.22398 1.60915 0
392 1 Si 58.3703 177.518 1.63205 0
393 1 Si 2.52058 28.2669 1.63191 0
394 1 Si 5.43063 29.2685 1.61022 0
395 1 Si 7.4844 26.9098 1.56943 0
396 1 Si 64.6907 0.528545 1.61769 0
397 1 Si 67.0575 3.04034 1.59974 0
398 1 Si 64.6848 5.29942 1.61392 0
399 1 Si 65.5893 175.891 1.6248 0
400 1 Si 57.6747 170.896 1.56846 0
401 1 Si 60.6577 171.238 1.60868 0
402 1 Si 57.4502 174.216 1.58796 0
403 1 Si 63.0659 173.863 1.56123 0
404 1 Si 105.275 29.6205 1.63347 0
405 1 Si 70.4525 4.08486 1.62787 0
406 1 Si 71.7092 7.2441 1.62048 0
407 1 Si 65.8392 8.29868 1.62528 0
408 1 Si 69.0052 8.95384 1.60199 0
409 1 Si 72.8313 1.87227 1.61673 0
410 1 Si 71.6522 177.2 1.62574 0
411 1 Si 68.88 175.31 1.63958 0
412 1 Si 76.1704 2.38715 1.63371 0
413 1 Si 78.3043 4.98066 1.63575 0
414 1 Si 77.6555 8.41274 1.6213 0
415 1 Si 74.3257 9.38559 1.62805 0
416 1 Si 77.2108 177.758 1.61185 0
417 1 Si 74.5815 175.966 1.63067 0
418 1 Si 81.4762 3.90263 1.63923 0
419 1 Si 83.3687 1.02792 1.63994 0
420 1 Si 79.5541 175.485 1.63919 0
421 1 Si 82.6936 176.063 1.63207 0
422 1 Si 83.4984 6.38433 1.6185 0
423 1 Si 83.4918 9.57381 1.63841 0
424 1 Si 80.34 10.6981 1.63025 0
425 1 Si 86.4326 5.20905 1.61532 0
426 1 Si 86.5396 2.00438 1.62734 0
427 1 Si 88.4097 7.71683 1.62579 0
428 1 Si 86.701 10.5409 1.62271 0
429 1 Si 91.998 3.44471 1.61705 0
430 1 Si 91.493 6.82028 1.61542 0
431 1 Si 89.6537 0.779304 1.63742 0
432 1 Si 138.746 28.1446 1.63232 0
433 1 Si 135.222 28.6464 1.62537 0
434 1 Si 95.3189 3.53809 1.62689 0
435 1 Si 96.3943 6.83392 1.61845 0
436 1 Si 93.9528 9.11456 1.61906 0
437 1 Si 97.2788 0.710738 1.62634 0
438 1 Si 93.3063 174.34 1.63217 0
439 1 Si 96.458 175.726 1.64175 0
440 1 Si 90.1383 175.704 1.62582 0
441 1 Si 141.15 30.7587 1.6361 0
442 1 Si 144.566 30.5755 1.62043 0
443 1 Si 152.822 28.1022 1.62227 0
444 1 Si 22.6104 13.8788 1.62372 0
445 1 Si 16.3854 14.7563 1.64966 0
446 1 Si 19.7123 15.457 1.62738 0
447 1 Si 32.2498 10.8119 1.6392 0
448 1 Si 29.0992 11.9331 1.64203 0
449 1 Si 38.0724 11.409 1.63424 0
450 1 Si 34.9818 12.5708 1.63771 0
451 1 Si 190.384 31.7897 1.63581 0
452 1 Si 185.289 33.0738 1.62335 0
453 1 Si 188.396 34.3076 1.62141 0
454 1 Si 43.8503 12.3655 1.62302 0
455 1 Si 40.7146 13.2569 1.63394 0
456 1 Si 64.1139 11.0691 1.61703 0
457 1 Si 60.7963 11.4566 1.6331 0
458 1 Si 0.667955 30.8808 1.63322 0
459 1 Si 69.4709 12.1062 1.60929 0
460 1 Si 66.46 13.4523 1.63421 0
461 1 Si 93.9835 12.5857 1.62893 0
462 1 Si 99.603 14.3402 1.63314 0
463 1 Si 96.3635 15.0111 1.62475 0
464 1 Si 152.211 31.0695 1.62768 0
465 1 Si 153.954 33.4878 1.60996 0
466 1 Si 156.683 34.447 1.6381 0
467 1 Si 25.4609 15.6795 1.62288 0
468 1 Si 28.7434 15.1943 1.63085 0
469 1 Si 180.457 32.9004 1.62085 0
470 1 Si 177.411 33.8347 1.62264 0
471 1 Si 49.2508 14.3047 1.64486 0
472 1 Si 46.0371 14.8667 1.64332 0
473 1 Si 56.3396 14.3548 1.62756 0
474 1 Si 51.4016 16.7234 1.62776 0
475 1 Si 54.6414 17.0567 1.62233 0
476 1 Si 72.7648 12.4205 1.62529 0
477 1 Si 80.2128 14.056 1.6307 0
478 1 Si 73.9814 15.4972 1.62607 0
479 1 Si 77.3948 15.8216 1.60519 0
480 1 Si 2.41611 33.8883 1.62158 0
481 1 Si 5.76556 34.8529 1.61569 0
482 1 Si 6.98403 31.966 1.60824 0
483 1 Si 87.9969 13.6197 1.63505 0
484 1 Si 82.8168 16.1748 1.61906 0
485 1 Si 86.0655 16.2919 1.62455 0
486 1 Si 102.925 32.1914 1.63695 0
487 1 Si 97.8299 28.6771 1.64281 0
488 1 Si 99.3525 31.7738 1.62584 0
489 1 Si 106.988 37.2607 1.62248 0
490 1 Si 103.997 35.4242 1.65716 0
491 1 Si 91.2236 14.3912 1.63337 0
492 1 Si 11.72 18.2339 1.61829 0
493 1 Si 14.8563 17.7486 1.62549 0
494 1 Si 134.501 31.9237 1.62816 0
495 1 Si 21.0976 18.4281 1.60554 0
496 1 Si 24.3835 18.6462 1.62986 0
497 1 Si 140.133 33.9648 1.63226 0
498 1 Si 136.871 34.321 1.64152 0
499 1 Si 149.699 32.9042 1.61785 0
500 1 Si 146.529 33.2261 1.62517 0
501 1 Si 34.3794 15.7202 1.63087 0
502 1 Si 31.4594 17.1609 1.63857 0
503 1 Si 40.0212 16.3259 1.63654 0
504 1 Si 37.0593 17.3936 1.64557 0
505 1 Si 151.589 35.3793 1.60247 0
506 1 Si 182.95 35.3302 1.61889 0
507 1 Si 45.2497 18.0545 1.63583 0
508 1 Si 42.1582 18.6496 1.62172 0
509 1 Si 59.8295 14.6539 1.61221 0
510 1 Si 65.8058 16.7427 1.62966 0
511 1 Si 62.3173 17.1793 1.62725 0
512 1 Si 71.868 18.2141 1.62698 0
513 1 Si 68.5447 19.1534 1.62467 0
514 1 Si 10.9458 21.3423 1.60933 0
515 1 Si 19.2442 21.1381 1.62497 0
516 1 Si 15.9739 20.8903 1.61721 0
517 1 Si 157.243 37.406 1.61202 0
518 1 Si 26.1871 21.326 1.6241 0
519 1 Si 20.9619 23.9019 1.63602 0
520 1 Si 24.2565 23.8492 1.60572 0
521 1 Si 31.7792 20.4382 1.63621 0
522 1 Si 29.2592 22.3654 1.62404 0
523 1 Si 176.843 36.9466 1.60873 0
524 1 Si 50.3433 19.6944 1.6368 0
525 1 Si 47.3025 20.5722 1.64263 0
526 1 Si 189.591 37.485 1.63601 0
527 1 Si 183.945 38.7918 1.64954 0
528 1 Si 187.265 39.8962 1.61994 0
529 1 Si 192.867 38.4066 1.62803 0
530 1 Si 55.6059 20.1375 1.6223 0
531 1 Si 52.8042 21.6851 1.62547 0
532 1 Si 78.9076 18.7243 1.61986 0
533 1 Si 73.9426 20.7227 1.62666 0
534 1 Si 77.1593 21.2925 1.62076 0
535 1 Si 82.0738 19.3088 1.59737 0
536 1 Si 123.868 39.4349 1.63122 0
537 1 Si 118.682 41.0982 1.62601 0
538 1 Si 121.979 42.1177 1.62682 0
539 1 Si 92.0702 17.5209 1.62728 0
540 1 Si 87.178 19.4306 1.62396 0
541 1 Si 90.3618 20.2285 1.62263 0
542 1 Si 136.201 37.4929 1.63235 0
543 1 Si 133.183 38.366 1.62321 0
544 1 Si 95.1993 18.1511 1.61915 0
545 1 Si 13.5584 23.1581 1.64048 0
546 1 Si 137.873 40.2473 1.62412 0
547 1 Si 156.084 40.1689 1.63684 0
548 1 Si 178.463 39.7642 1.62861 0
549 1 Si 181.536 41.2339 1.62122 0
550 1 Si 37.1705 20.5012 1.62734 0
551 1 Si 34.529 22.1753 1.63249 0
552 1 Si 40.2603 21.1367 1.6248 0
553 1 Si 193.983 41.4294 1.6295 0
554 1 Si 61.3668 20.3707 1.64961 0
555 1 Si 58.3668 21.793 1.63182 0
556 1 Si 106.676 40.6494 1.62131 0
557 1 Si 103.823 42.2217 1.64359 0
558 1 Si 101.236 37.2047 1.62635 0
559 1 Si 101.332 40.3277 1.61156 0
560 1 Si 112.206 41.6343 1.63187 0
561 1 Si 109.143 42.7644 1.62994 0
562 1 Si 68.792 22.6686 1.60847 0
563 1 Si 63.5315 22.6933 1.59247 0
564 1 Si 66.208 24.3256 1.64716 0
565 1 Si 73.3136 23.7767 1.60616 0
566 1 Si 70.7105 25.5468 1.59681 0
567 1 Si 127.066 40.2121 1.6243 0
568 1 Si 84.5882 21.4181 1.63737 0
569 1 Si 117.586 44.2845 1.62078 0
570 1 Si 114.456 43.8958 1.62722 0
571 1 Si 95.6947 21.4616 1.62882 0
572 1 Si 132.514 41.4564 1.61532 0
573 1 Si 129.433 42.479 1.63662 0
574 1 Si 13.2489 26.3553 1.61555 0
575 1 Si 8.92771 29.6161 1.63901 0
576 1 Si 11.8486 29.1577 1.61898 0
577 1 Si 157.873 42.7198 1.61783 0
578 1 Si 161.106 42.9387 1.65084 0
579 1 Si 19.8201 26.9088 1.61239 0
580 1 Si 14.6501 29.2309 1.61918 0
581 1 Si 17.691 29.281 1.61506 0
582 1 Si 26.4977 26.1962 1.6204 0
583 1 Si 22.1691 29.0083 1.61398 0
584 1 Si 25.3417 29.0771 1.6174 0
585 1 Si 172.837 40.8479 1.62962 0
586 1 Si 175.973 41.7207 1.63917 0
587 1 Si 29.6463 25.5756 1.60943 0
588 1 Si 188.741 42.9632 1.63033 0
589 1 Si 181.904 44.8573 1.62192 0
590 1 Si 187.295 45.7826 1.63641 0
591 1 Si 184.395 47.1493 1.63104 0
592 1 Si 46.7606 23.7953 1.64497 0
593 1 Si 40.8675 24.1462 1.61835 0
594 1 Si 43.8684 25.1776 1.60993 0
595 1 Si 191.955 43.8907 1.64019 0
596 1 Si 52.2161 24.7901 1.63032 0
597 1 Si 49.1952 25.98 1.6407 0
598 1 Si 57.7302 25.0414 1.62332 0
599 1 Si 54.8678 26.5704 1.63707 0
600 1 Si 5.94346 40.7097 1.61688 0
601 1 Si 7.72209 37.7975 1.61453 0
602 1 Si 78.6469 24.2266 1.64189 0
603 1 Si 75.8596 25.6541 1.62184 0
604 1 Si 108.803 45.9609 1.63477 0
605 1 Si 106.754 48.4048 1.62513 0
606 1 Si 102.565 45.2477 1.61752 0
607 1 Si 103.614 48.3473 1.62042 0
608 1 Si 84.6098 24.7598 1.62164 0
609 1 Si 81.4122 26.0862 1.62796 0
610 1 Si 123.372 45.4607 1.61241 0
611 1 Si 118.443 47.6696 1.61963 0
612 1 Si 121.595 48.3077 1.61496 0
613 1 Si 92.557 22.7659 1.62359 0
614 1 Si 91.5061 26.0122 1.62578 0
615 1 Si 87.6257 26.6833 1.61596 0
616 1 Si 135.55 42.5686 1.62971 0
617 1 Si 135.868 45.7394 1.62616 0
618 1 Si 139.142 46.8778 1.61963 0
619 1 Si 35.0715 25.3554 1.64579 0
620 1 Si 32.4242 27.292 1.65612 0
621 1 Si 38.2629 26.0328 1.6147 0
622 1 Si 155.397 44.8036 1.63496 0
623 1 Si 167.97 43.4772 1.63186 0
624 1 Si 171.15 43.4489 1.63251 0
625 1 Si 40.1169 28.6336 1.62177 0
626 1 Si 43.3233 28.3101 1.60099 0
627 1 Si 176.72 44.8098 1.60701 0
628 1 Si 179.259 46.849 1.63008 0
629 1 Si 62.8059 25.735 1.60618 0
630 1 Si 60.0401 27.2047 1.61997 0
631 1 Si 193.613 46.7328 1.60177 0
632 1 Si 196.685 47.3437 1.63209 0
633 1 Si 65.474 27.3369 1.60216 0
634 1 Si 75.2365 28.7357 1.62499 0
635 1 Si 71.9717 28.7045 1.61705 0
636 1 Si 114.419 46.9726 1.56179 0
637 1 Si 111.226 47.8757 1.59184 0
638 1 Si 129.394 45.7518 1.61901 0
639 1 Si 126.342 47.1785 1.63695 0
640 1 Si 94.1067 28.5596 1.62418 0
641 1 Si 132.633 46.9895 1.61388 0
642 1 Si 13.0625 32.0531 1.60211 0
643 1 Si 21.4434 32.0462 1.63126 0
644 1 Si 18.3291 32.444 1.62557 0
645 1 Si 161.76 46.146 1.61916 0
646 1 Si 167.503 46.7412 1.6308 0
647 1 Si 164.525 47.8138 1.62532 0
648 1 Si 26.8276 31.9177 1.61508 0
649 1 Si 24.1583 33.7547 1.62399 0
650 1 Si 32.5663 30.5869 1.64375 0
651 1 Si 29.9761 32.7537 1.6461 0
652 1 Si 173.611 45.4235 1.61527 0
653 1 Si 35.5801 31.786 1.61902 0
654 1 Si 38.8015 31.4584 1.61818 0
655 1 Si 189.259 48.1957 1.58394 0
656 1 Si 188.056 51.0466 1.59024 0
657 1 Si 184.96 50.491 1.6175 0
658 1 Si 48.711 29.2507 1.65527 0
659 1 Si 45.6508 30.5222 1.6243 0
660 1 Si 194.319 49.9989 1.56353 0
661 1 Si 191.345 50.497 1.6061 0
662 1 Si 54.3519 29.7371 1.62958 0
663 1 Si 51.421 31.0888 1.63241 0
664 1 Si 59.6482 30.4407 1.63491 0
665 1 Si 56.7219 31.9024 1.61049 0
666 1 Si 2.11391 44.7688 1.63652 0
667 1 Si 206.237 46.8396 1.62678 0
668 1 Si 198.301 50.1112 1.63761 0
669 1 Si 201.455 49.7861 1.60391 0
670 1 Si 80.7669 29.453 1.63117 0
671 1 Si 77.6694 30.8965 1.63301 0
672 1 Si 4.81959 46.3421 1.6469 0
673 1 Si 7.26913 44.2871 1.63582 0
674 1 Si 114.067 50.2488 1.66453 0
675 1 Si 117.007 50.8307 1.62455 0
676 1 Si 86.6135 30.0047 1.62952 0
677 1 Si 83.3999 31.4923 1.63087 0
678 1 Si 89.1158 32.165 1.62498 0
679 1 Si 92.4076 31.5389 1.61118 0
680 1 Si 126.132 50.5606 1.60983 0
681 1 Si 123.006 51.3815 1.60428 0
682 1 Si 133.219 50.1135 1.63279 0
683 1 Si 138.978 50.1244 1.6341 0
684 1 Si 136.12 51.4694 1.62181 0
685 1 Si 156.212 47.905 1.63424 0
686 1 Si 150.804 49.7148 1.63109 0
687 1 Si 154.053 50.312 1.63334 0
688 1 Si 159.414 48.408 1.61533 0
689 1 Si 173.067 48.4035 1.61687 0
690 1 Si 169.935 48.9291 1.61204 0
691 1 Si 175.553 50.375 1.64063 0
692 1 Si 178.755 50.183 1.63982 0
693 1 Si 65.2043 30.4254 1.62909 0
694 1 Si 62.4156 32.0259 1.6298 0
695 1 Si 196.393 52.6004 1.62088 0
696 1 Si 71.0027 31.8329 1.62789 0
697 1 Si 67.7725 32.2539 1.60423 0
698 1 Si 0.899413 49.7919 1.63921 0
699 1 Si 4.19593 49.5182 1.65286 0
700 1 Si 111.16 51.0141 1.58093 0
701 1 Si 108.114 51.3173 1.63533 0
702 1 Si 13.1429 35.2827 1.61784 0
703 1 Si 11.1669 38.1082 1.64727 0
704 1 Si 128.236 53.1135 1.62809 0
705 1 Si 131.269 52.5512 1.61767 0
706 1 Si 16.3942 35.0238 1.61937 0
707 1 Si 144.425 51.0948 1.64374 0
708 1 Si 141.417 52.2223 1.64034 0
709 1 Si 30.3419 36.0141 1.63116 0
710 1 Si 23.7185 36.9163 1.62284 0
711 1 Si 25.7226 39.4761 1.61457 0
712 1 Si 28.9125 38.9602 1.62439 0
713 1 Si 149.815 52.743 1.61985 0
714 1 Si 146.739 53.3364 1.63948 0
715 1 Si 35.7945 34.8793 1.61874 0
716 1 Si 33.3631 36.7915 1.6343 0
717 1 Si 40.9281 33.9201 1.61763 0
718 1 Si 38.6575 36.1319 1.60629 0
719 1 Si 160.772 51.2638 1.62173 0
720 1 Si 163.915 50.9096 1.6135 0
721 1 Si 44.1737 33.473 1.62307 0
722 1 Si 51.8345 34.3171 1.62451 0
723 1 Si 46.0077 36.0234 1.61684 0
724 1 Si 49.1898 36.2644 1.61629 0
725 1 Si 170.702 52.0133 1.64084 0
726 1 Si 173.803 52.9478 1.62906 0
727 1 Si 55.1448 34.8226 1.62592 0
728 1 Si 62.8966 35.2091 1.64936 0
729 1 Si 56.628 37.8206 1.62426 0
730 1 Si 60.4268 37.6458 1.62611 0
731 1 Si 190.15 53.3834 1.57928 0
732 1 Si 76.7018 34.134 1.61962 0
733 1 Si 73.2725 34.387 1.62559 0
734 1 Si 204.353 51.3474 1.63557 0
735 1 Si 82.5132 34.8978 1.64943 0
736 1 Si 79.3138 36.4324 1.63593 0
737 1 Si 122.485 54.7262 1.63573 0
738 1 Si 115.981 54.1377 1.60464 0
739 1 Si 119.097 55.483 1.60853 0
740 1 Si 88.2498 35.3802 1.61892 0
741 1 Si 85.233 36.8898 1.63816 0
742 1 Si 93.6374 34.5971 1.60768 0
743 1 Si 96.9956 34.3631 1.62576 0
744 1 Si 128.744 56.4522 1.6037 0
745 1 Si 125.428 56.8271 1.60619 0
746 1 Si 135.91 54.6461 1.62646 0
747 1 Si 132.892 55.2551 1.62404 0
748 1 Si 17.6627 37.8634 1.63039 0
749 1 Si 20.8126 38.2566 1.6042 0
750 1 Si 140.959 55.4391 1.63404 0
751 1 Si 138.121 56.897 1.6298 0
752 1 Si 154.882 53.5545 1.63203 0
753 1 Si 152.071 55.0203 1.62835 0
754 1 Si 160.247 54.3838 1.63197 0
755 1 Si 157.383 55.7749 1.61912 0
756 1 Si 165.409 53.6437 1.6302 0
757 1 Si 168.51 54.2353 1.63392 0
758 1 Si 66.2064 35.0768 1.61766 0
759 1 Si 68.4795 37.2506 1.60177 0
760 1 Si 71.6651 37.2266 1.60851 0
761 1 Si 180.403 53.1672 1.62446 0
762 1 Si 183.73 53.5366 1.62724 0
763 1 Si 204.414 54.5544 1.62604 0
764 1 Si 197.619 55.7865 1.6596 0
765 1 Si 201.236 56.4423 1.61707 0
766 1 Si 175.266 55.8155 1.64562 0
767 1 Si 178.63 56.0107 1.62056 0
768 1 Si 91.1414 36.9229 1.62388 0
769 1 Si 97.9542 37.4167 1.62353 0
770 1 Si 1.57166 55.0738 1.63488 0
771 1 Si 5.13229 54.7137 1.63571 0
772 1 Si 6.707 51.6859 1.62696 0
773 1 Si 113.213 56.3401 1.62739 0
774 1 Si 109.697 56.6827 1.63765 0
775 1 Si 107.222 54.3534 1.60495 0
776 1 Si 118.172 58.5832 1.612 0
777 1 Si 114.97 59.0895 1.6175 0
778 1 Si 15.8321 40.4752 1.60961 0
779 1 Si 12.7292 41.2027 1.6276 0
780 1 Si 131.78 58.1894 1.64504 0
781 1 Si 20.8816 41.4346 1.63133 0
782 1 Si 17.9659 42.7884 1.61952 0
783 1 Si 23.9727 42.2992 1.62219 0
784 1 Si 146.291 56.4547 1.62584 0
785 1 Si 143.34 57.5166 1.63081 0
786 1 Si 34.0412 39.8197 1.59852 0
787 1 Si 31.1936 41.2856 1.62611 0
788 1 Si 37.1395 38.9588 1.62912 0
789 1 Si 163.118 55.8343 1.61175 0
790 1 Si 45.2335 39.0863 1.61249 0
791 1 Si 39.4483 40.9391 1.6132 0
792 1 Si 42.5769 40.8344 1.61782 0
793 1 Si 169.604 57.1913 1.64016 0
794 1 Si 172.756 57.8911 1.62249 0
795 1 Si 48.4153 39.3889 1.62103 0
796 1 Si 189.168 56.4055 1.63533 0
797 1 Si 185.66 56.452 1.62403 0
798 1 Si 54.0352 40.7831 1.6178 0
799 1 Si 50.2229 42.0613 1.63627 0
800 1 Si 61.9185 40.6353 1.62872 0
801 1 Si 56.1365 43.318 1.62821 0
802 1 Si 59.5604 42.9358 1.61102 0
803 1 Si 195.224 58.3658 1.61221 0
804 1 Si 191.722 58.7091 1.61442 0
805 1 Si 68.1546 40.3761 1.60444 0
806 1 Si 65.1758 41.7336 1.61861 0
807 1 Si 201.803 59.7641 1.61107 0
808 1 Si 1.10649 58.1316 1.61955 0
809 1 Si 204.962 60.0597 1.64735 0
810 1 Si 79.0836 40.0339 1.61686 0
811 1 Si 71.4083 40.4569 1.6231 0
812 1 Si 76.6685 42.6432 1.60706 0
813 1 Si 73.2042 43.22 1.61876 0
814 1 Si 126.166 59.9619 1.63245 0
815 1 Si 123.217 61.0329 1.58649 0
816 1 Si 120.081 61.1565 1.63703 0
817 1 Si 85.0496 40.3005 1.63443 0
818 1 Si 82.0037 41.7786 1.61834 0
819 1 Si 134.227 60.755 1.63726 0
820 1 Si 137.547 60.097 1.62574 0
821 1 Si 90.8204 40.2145 1.61518 0
822 1 Si 88.0141 41.9625 1.61059 0
823 1 Si 96.2328 40.3366 1.64242 0
824 1 Si 98.7459 42.1666 1.61686 0
825 1 Si 151.6 58.1977 1.63073 0
826 1 Si 148.434 58.8062 1.61947 0
827 1 Si 157.407 59.1791 1.61368 0
828 1 Si 153.973 60.5029 1.61573 0
829 1 Si 163.937 58.9017 1.62389 0
830 1 Si 167.286 59.4514 1.63825 0
831 1 Si 180.352 58.8757 1.63412 0
832 1 Si 183.809 59.3334 1.63098 0
833 1 Si 196.482 61.494 1.61358 0
834 1 Si 199.719 62.4591 1.62972 0
835 1 Si 93.425 42.1694 1.61727 0
836 1 Si 4.15 59.0932 1.61054 0
837 1 Si 6.98596 57.5774 1.62726 0
838 1 Si 108.327 59.7218 1.63053 0
839 1 Si 105.017 60.1293 1.63164 0
840 1 Si 103.872 54.5197 1.60914 0
841 1 Si 102.735 57.7185 1.62897 0
842 1 Si 113.728 62.0673 1.64935 0
843 1 Si 110.465 62.2455 1.62503 0
844 1 Si 128.104 62.5989 1.62176 0
845 1 Si 125.105 63.5343 1.61082 0
846 1 Si 118.98 64.2131 1.64618 0
847 1 Si 115.749 64.6427 1.6294 0
848 1 Si 12.8761 44.6337 1.6258 0
849 1 Si 10.0645 46.5714 1.62888 0
850 1 Si 133.867 64.1239 1.63103 0
851 1 Si 130.553 64.9144 1.62846 0
852 1 Si 16.1775 45.4827 1.61731 0
853 1 Si 143.282 60.705 1.62335 0
854 1 Si 140.286 62.0567 1.64339 0
855 1 Si 24.6129 45.5481 1.65915 0
856 1 Si 18.1696 48.0986 1.61967 0
857 1 Si 21.7252 47.6844 1.62298 0
858 1 Si 146.497 61.3908 1.62581 0