ITEM: TIMESTEP
1216
ITEM: NUMBER OF ATOMS
15564
ITEM: BOX BOUNDS pp pp pp
0.0000000000000000e+00 2.0502802405281287e+02
0.0000000000000000e+00 1.7654832053921925e+02
-1.0000000000000000e+02 1.0000000000000000e+02
ITEM: ATOMS id type element x y z v_uncoordination
1 1 Si 145.965 29.8424 1.62132 0
2 1 Si 145.382 26.662 1.63224 0
3 1 Si 149.14 30.7349 1.64072 0
4 1 Si 151.488 28.2339 1.62524 0
5 1 Si 147.511 24.087 1.63086 0
6 1 Si 150.743 24.7874 1.64537 0
7 1 Si 143.563 32.1137 1.60799 0
8 1 Si 142.219 26.182 1.63375 0
9 1 Si 139.841 28.3922 1.6216 0
10 1 Si 140.203 31.6887 1.65746 0
11 1 Si 149.109 34.0655 1.6103 0
12 1 Si 145.829 34.4454 1.60849 0
13 1 Si 154.727 29.1997 1.62506 0
14 1 Si 155.597 32.7323 1.63155 0
15 1 Si 154.336 35.9496 1.62863 0
16 1 Si 151.238 36.7558 1.62466 0
17 1 Si 0.756818 30.2539 1.62555 0
18 1 Si 202.921 28.6764 1.6433 0
19 1 Si 3.44032 28.579 1.63714 0
20 1 Si 0.993012 23.6162 1.62231 0
21 1 Si 203.069 25.2798 1.63159 0
22 1 Si 3.67866 25.3811 1.63648 0
23 1 Si 1.1172 33.4645 1.62786 0
24 1 Si 200.41 30.9023 1.63091 0
25 1 Si 200.927 34.1146 1.62094 0
26 1 Si 203.728 35.4243 1.63841 0
27 1 Si 5.97202 30.43 1.63056 0
28 1 Si 3.65772 35.3898 1.62716 0
29 1 Si 6.17978 33.5771 1.63349 0
30 1 Si 154.08 50.7931 1.63298 0
31 1 Si 156.162 47.88 1.64287 0
32 1 Si 150.827 52.1264 1.62146 0
33 1 Si 151.804 43.5433 1.64505 0
34 1 Si 154.962 44.6346 1.63778 0
35 1 Si 149.827 46.2463 1.62263 0
36 1 Si 149.037 49.4728 1.62912 0
37 1 Si 155.405 53.7379 1.6421 0
38 1 Si 159.618 48.1805 1.62292 0
39 1 Si 160.751 51.3611 1.6357 0
40 1 Si 158.563 53.7272 1.61693 0
41 1 Si 148.928 55.342 1.62577 0
42 1 Si 154.153 56.7281 1.61885 0
43 1 Si 151.071 57.9612 1.63269 0
44 1 Si 109.85 3.83823 1.63982 0
45 1 Si 112.869 2.98352 1.62814 0
46 1 Si 109.932 7.14279 1.62666 0
47 1 Si 115.628 4.49986 1.63601 0
48 1 Si 116.088 7.57817 1.61983 0
49 1 Si 112.962 8.90452 1.62373 0
50 1 Si 107.826 1.26049 1.62992 0
51 1 Si 113.756 0.0120733 1.62435 0
52 1 Si 108.986 174.804 1.62401 0
53 1 Si 112.019 174.038 1.6342 0
54 1 Si 106.785 8.17401 1.63003 0
55 1 Si 103.877 6.44916 1.61645 0
56 1 Si 102.6 3.29563 1.6315 0
57 1 Si 104.641 0.717502 1.62325 0
58 1 Si 118.15 2.61315 1.63937 0
59 1 Si 116.838 176.348 1.62925 0
60 1 Si 121.286 3.03534 1.63222 0
61 1 Si 122.362 6.12412 1.63126 0
62 1 Si 119.49 8.18452 1.62605 0
63 1 Si 122.701 0.150922 1.62894 0
64 1 Si 118.235 173.613 1.64271 0
65 1 Si 121.294 173.84 1.62367 0
66 1 Si 128.475 4.27401 1.63375 0
67 1 Si 125.881 6.47718 1.63436 0
68 1 Si 128.157 0.966206 1.61561 0
69 1 Si 125.628 175.58 1.63498 0
70 1 Si 131.685 5.27165 1.62202 0
71 1 Si 133.062 8.28667 1.62802 0
72 1 Si 127.392 9.38128 1.62758 0
73 1 Si 130.551 10.3076 1.62329 0
74 1 Si 133.94 3.00141 1.64423 0
75 1 Si 133.422 176.433 1.62929 0
76 1 Si 130.52 175.305 1.61921 0
77 1 Si 137.071 3.37873 1.62996 0
78 1 Si 138.344 6.32087 1.62574 0
79 1 Si 136.373 8.98885 1.63268 0
80 1 Si 138.139 0.34455 1.6223 0
81 1 Si 135.989 174.599 1.62111 0
82 1 Si 141.608 6.11145 1.62683 0
83 1 Si 142.465 2.79603 1.61975 0
84 1 Si 141.165 176.188 1.61839 0
85 1 Si 148.11 3.71383 1.62383 0
86 1 Si 145.494 1.95961 1.63299 0
87 1 Si 148.828 6.80682 1.63606 0
88 1 Si 143.309 9.06705 1.64619 0
89 1 Si 146.719 9.34571 1.62624 0
90 1 Si 150.457 1.56849 1.62994 0
91 1 Si 146.461 175.498 1.61811 0
92 1 Si 149.572 175.154 1.62348 0
93 1 Si 154.39 4.77279 1.61695 0
94 1 Si 153.567 1.76869 1.64184 0
95 1 Si 152.091 7.035 1.6385 0
96 1 Si 159.802 2.74553 1.65571 0
97 1 Si 163.108 3.56024 1.63593 0
98 1 Si 157.566 5.37536 1.60973 0
99 1 Si 164.157 7.01911 1.64807 0
100 1 Si 156.896 8.66702 1.62164 0
101 1 Si 162.289 10.1151 1.62515 0
102 1 Si 158.906 11.18 1.62618 0
103 1 Si 158.708 175.962 1.61866 0
104 1 Si 165.202 0.745283 1.64144 0
105 1 Si 162.064 171.184 1.62253 0
106 1 Si 159.064 172.483 1.62409 0
107 1 Si 164.543 173.681 1.63177 0
108 1 Si 155.535 175.815 1.62552 0
109 1 Si 169.615 4.929 1.6324 0
110 1 Si 167.519 7.58384 1.63537 0
111 1 Si 168.435 1.77565 1.63776 0
112 1 Si 172.973 5.38657 1.62926 0
113 1 Si 174.025 8.43802 1.62671 0
114 1 Si 168.808 10.7257 1.6241 0
115 1 Si 172.022 10.9975 1.63635 0
116 1 Si 175.276 2.99318 1.62328 0
117 1 Si 173.93 0.0495431 1.62391 0
118 1 Si 170.762 175.989 1.64464 0
119 1 Si 178.621 2.65484 1.63269 0
120 1 Si 180.826 5.28307 1.61297 0
121 1 Si 179.971 8.4068 1.61852 0
122 1 Si 177.021 9.53138 1.64042 0
123 1 Si 179.089 175.816 1.60813 0
124 1 Si 176.197 174.299 1.62266 0
125 1 Si 184.027 6.2634 1.60767 0
126 1 Si 186.053 3.88479 1.64307 0
127 1 Si 185.387 0.712601 1.59004 0
128 1 Si 181.249 173.202 1.61955 0
129 1 Si 184.289 174.194 1.63152 0
130 1 Si 185.181 9.43547 1.62079 0
131 1 Si 182.254 10.7355 1.62249 0
132 1 Si 190.279 2.12379 1.60843 0
133 1 Si 189.039 4.98051 1.5792 0
134 1 Si 188.378 176.305 1.6215 0
135 1 Si 193.189 2.9924 1.61043 0
136 1 Si 192.04 5.85433 1.6401 0
137 1 Si 195.642 1.1896 1.63099 0
138 1 Si 194.919 174.543 1.61547 0
139 1 Si 192.301 172.377 1.63492 0
140 1 Si 189.201 173.293 1.63098 0
141 1 Si 198.291 3.11513 1.59958 0
142 1 Si 198.921 6.47294 1.62155 0
143 1 Si 193.478 8.58551 1.60097 0
144 1 Si 196.763 9.03369 1.60078 0
145 1 Si 200.245 0.617588 1.59116 0
146 1 Si 198.138 174.791 1.60712 0
147 1 Si 203.231 4.63492 1.62892 0
148 1 Si 201.956 7.56166 1.63155 0
149 1 Si 203.213 1.47995 1.641 0
150 1 Si 1.04977 5.68329 1.62793 0
151 1 Si 1.58353 8.66378 1.62946 0
152 1 Si 203.931 10.2085 1.61256 0
153 1 Si 2.31784 2.89851 1.62944 0
154 1 Si 0.979215 0.154136 1.63605 0
155 1 Si 106.223 11.3955 1.61252 0
156 1 Si 102.994 11.6742 1.61148 0
157 1 Si 101.585 8.78432 1.62533 0
158 1 Si 119.74 11.4253 1.62856 0
159 1 Si 113.706 12.1403 1.63652 0
160 1 Si 116.923 13.1902 1.63073 0
161 1 Si 122.622 12.9605 1.62237 0
162 1 Si 125.653 12.0129 1.6287 0
163 1 Si 137.999 11.9614 1.6444 0
164 1 Si 141.461 11.9239 1.63877 0
165 1 Si 153.723 9.76061 1.62158 0
166 1 Si 148.418 12.2597 1.63622 0
167 1 Si 151.801 12.4802 1.64262 0
168 1 Si 163.85 13.0719 1.62889 0
169 1 Si 167.187 13.668 1.63239 0
170 1 Si 191.167 10.9336 1.59974 0
171 1 Si 187.795 11.6277 1.64028 0
172 1 Si 196.917 12.3477 1.62316 0
173 1 Si 193.629 13.164 1.61882 0
174 1 Si 4.6043 9.11321 1.62227 0
175 1 Si 6.25402 6.58733 1.60716 0
176 1 Si 5.10545 3.79257 1.59311 0
177 1 Si 108.096 14.0601 1.64442 0
178 1 Si 111.342 14.439 1.62535 0
179 1 Si 117.67 16.3672 1.63041 0
180 1 Si 123.083 16.1623 1.62033 0
181 1 Si 120.492 17.9567 1.62067 0
182 1 Si 130.739 13.5179 1.6325 0
183 1 Si 127.715 14.4197 1.61128 0
184 1 Si 136.272 14.923 1.62407 0
185 1 Si 132.947 15.8411 1.62539 0
186 1 Si 143.264 14.7862 1.65537 0
187 1 Si 146.639 15.0779 1.64346 0
188 1 Si 156.838 14.1748 1.62361 0
189 1 Si 161.882 15.7001 1.62872 0
190 1 Si 158.747 16.7273 1.63051 0
191 1 Si 176.688 12.6486 1.62733 0
192 1 Si 173.752 13.6756 1.62058 0
193 1 Si 181.735 13.9419 1.63184 0
194 1 Si 178.758 14.9649 1.62771 0
195 1 Si 187.046 14.9473 1.63332 0
196 1 Si 183.973 16.242 1.63593 0
197 1 Si 0.191222 13.2534 1.63852 0
198 1 Si 199.472 14.6935 1.61696 0
199 1 Si 202.814 15.384 1.6127 0
200 1 Si 3.41211 14.1279 1.59872 0
201 1 Si 5.65085 11.9131 1.60715 0
202 1 Si 106.508 16.8612 1.6347 0
203 1 Si 103.355 17.1077 1.62642 0
204 1 Si 101.502 14.5002 1.64956 0
205 1 Si 112.371 17.5257 1.62273 0
206 1 Si 115.358 18.5175 1.62629 0
207 1 Si 126.138 17.1157 1.62578 0
208 1 Si 138.182 17.6166 1.63765 0
209 1 Si 141.523 17.5948 1.64407 0
210 1 Si 153.496 15.3443 1.62338 0
211 1 Si 168.636 16.9233 1.61873 0
212 1 Si 174.339 16.8604 1.63959 0
213 1 Si 171.721 18.7238 1.61805 0
214 1 Si 192.775 16.3145 1.63547 0
215 1 Si 189.552 17.0871 1.64931 0
216 1 Si 198.45 17.794 1.63157 0
217 1 Si 195.266 18.5664 1.65065 0
218 1 Si 5.72536 16.4114 1.63557 0
219 1 Si 8.68186 12.3802 1.62022 0
220 1 Si 8.83452 15.7381 1.55646 0
221 1 Si 107.695 19.7852 1.61901 0
222 1 Si 110.77 20.2721 1.6306 0
223 1 Si 115.421 21.7157 1.61761 0
224 1 Si 120.491 21.1722 1.61404 0
225 1 Si 118.076 23.348 1.61344 0
226 1 Si 131.217 18.8516 1.62103 0
227 1 Si 127.912 19.7501 1.63717 0
228 1 Si 136.498 20.4586 1.62487 0
229 1 Si 133.302 21.2991 1.625 0
230 1 Si 148.264 18.0775 1.64673 0
231 1 Si 143.175 20.4536 1.64354 0
232 1 Si 146.438 20.8925 1.64656 0
233 1 Si 151.644 18.4245 1.64109 0
234 1 Si 163.2 18.5846 1.62558 0
235 1 Si 157.902 19.9722 1.6133 0
236 1 Si 160.945 20.8528 1.62998 0
237 1 Si 166.344 19.281 1.63675 0
238 1 Si 177.495 17.9003 1.61621 0
239 1 Si 182.931 19.3974 1.62023 0
240 1 Si 179.685 20.4606 1.64281 0
241 1 Si 203.839 18.5725 1.62295 0
242 1 Si 200.889 20.0195 1.62408 0
243 1 Si 1.69044 20.3643 1.63493 0
244 1 Si 5.01743 19.4973 1.62283 0
245 1 Si 105.153 21.6509 1.61459 0
246 1 Si 102.359 20.1437 1.62141 0
247 1 Si 112.516 22.932 1.61802 0
248 1 Si 122.878 23.1553 1.63341 0
249 1 Si 126.002 22.4403 1.63434 0
250 1 Si 138.205 23.1378 1.62107 0
251 1 Si 141.351 23.102 1.6431 0
252 1 Si 152.643 21.845 1.6269 0
253 1 Si 155.839 22.7064 1.63281 0
254 1 Si 166.988 22.4778 1.64388 0
255 1 Si 172.674 22.1492 1.61617 0
256 1 Si 169.889 23.8767 1.62553 0
257 1 Si 188.846 20.2601 1.6333 0
258 1 Si 185.648 21.2096 1.63583 0
259 1 Si 194.783 21.8227 1.62831 0
260 1 Si 191.528 22.2125 1.62349 0
261 1 Si 200.324 23.331 1.63199 0
262 1 Si 197.072 24.3779 1.6195 0
263 1 Si 108.295 26.1409 1.60223 0
264 1 Si 105.475 24.7119 1.63908 0
265 1 Si 111.451 25.8958 1.6389 0
266 1 Si 118.35 26.6378 1.63513 0
267 1 Si 121.539 26.1183 1.62258 0
268 1 Si 132.336 24.4351 1.61341 0
269 1 Si 126.574 25.5755 1.61842 0
270 1 Si 129.65 26.1666 1.6247 0
271 1 Si 137.444 26.2603 1.62503 0
272 1 Si 134.398 26.9198 1.61892 0
273 1 Si 161.568 23.9313 1.62883 0
274 1 Si 156.594 26.1873 1.62757 0
275 1 Si 159.807 26.6281 1.62774 0
276 1 Si 164.618 24.6527 1.628 0
277 1 Si 178.683 23.764 1.62056 0
278 1 Si 175.432 24.3721 1.65181 0
279 1 Si 185.147 24.3107 1.62826 0
280 1 Si 180.144 26.9557 1.61667 0
281 1 Si 183.248 26.8395 1.63545 0
282 1 Si 107.612 29.2008 1.61205 0
283 1 Si 104.488 29.3448 1.63026 0
284 1 Si 102.95 26.5806 1.60545 0
285 1 Si 112.972 28.7432 1.61375 0
286 1 Si 116.226 29.4029 1.62867 0
287 1 Si 124.182 27.7862 1.62478 0
288 1 Si 169.863 27.1114 1.62733 0
289 1 Si 164.693 27.853 1.63032 0
290 1 Si 167.519 29.2373 1.61982 0
291 1 Si 175.29 27.7451 1.62521 0
292 1 Si 172.407 28.9431 1.62441 0
293 1 Si 190.858 25.2477 1.63711 0
294 1 Si 187.828 25.798 1.62898 0
295 1 Si 195.839 27.6117 1.62499 0
296 1 Si 192.613 27.8631 1.62248 0
297 1 Si 6.66723 24.2961 1.62937 0
298 1 Si 7.83847 21.3372 1.6257 0
299 1 Si 110.391 30.7554 1.6251 0
300 1 Si 130.154 29.2882 1.61681 0
301 1 Si 133.278 29.8932 1.61554 0
302 1 Si 161.799 29.2316 1.63111 0
303 1 Si 176.645 30.8041 1.61602 0
304 1 Si 179.787 30.4935 1.6298 0
305 1 Si 187.57 28.8226 1.63828 0
306 1 Si 184.652 29.6758 1.64042 0
307 1 Si 197.134 30.681 1.63391 0
308 1 Si 110.344 33.9574 1.61904 0
309 1 Si 107.158 35.449 1.62867 0
310 1 Si 103.546 34.651 1.63912 0
311 1 Si 102.346 31.6149 1.62158 0
312 1 Si 124.547 30.9668 1.62111 0
313 1 Si 116.423 32.917 1.6212 0
314 1 Si 122.441 33.5043 1.61159 0
315 1 Si 119.299 34.6083 1.62268 0
316 1 Si 127.78 31.3806 1.62118 0
317 1 Si 134.44 32.8682 1.64164 0
318 1 Si 137.516 33.8937 1.62316 0
319 1 Si 161.572 32.5275 1.64377 0
320 1 Si 158.632 33.908 1.63664 0
321 1 Si 168.877 32.153 1.62775 0
322 1 Si 164.066 34.7589 1.61093 0
323 1 Si 167.336 34.8875 1.6223 0
324 1 Si 172.058 32.0938 1.60441 0
325 1 Si 174.856 33.637 1.63019 0
326 1 Si 190.381 30.0861 1.63724 0
327 1 Si 195.475 33.6084 1.61201 0
328 1 Si 196.426 36.7062 1.61489 0
329 1 Si 199.48 37.01 1.62678 0
330 1 Si 9.13799 26.2898 1.62381 0
331 1 Si 8.89361 29.404 1.62394 0
332 1 Si 113.636 35.1211 1.64559 0
333 1 Si 7.5636 0.444361 1.59321 0
334 1 Si 10.3969 175.912 1.61564 0
335 1 Si 9.23893 6.0281 1.6291 0
336 1 Si 8.0814 3.3173 1.5868 0
337 1 Si 13.6635 4.86226 1.62068 0
338 1 Si 12.9137 1.37335 1.6254 0
339 1 Si 11.8063 7.63281 1.61718 0
340 1 Si 5.4348 174.867 1.62786 0
341 1 Si 8.1892 173.457 1.62428 0
342 1 Si 128.997 34.2412 1.63749 0
343 1 Si 132.027 34.9873 1.63284 0
344 1 Si 18.8675 3.88182 1.59985 0
345 1 Si 16.6162 6.29985 1.61319 0
346 1 Si 19.3022 0.613665 1.62868 0
347 1 Si 13.7292 174.656 1.62032 0
348 1 Si 16.9191 174.909 1.6064 0
349 1 Si 21.6416 5.51522 1.60294 0
350 1 Si 21.1621 8.79225 1.62911 0
351 1 Si 17.8775 9.52262 1.62081 0
352 1 Si 23.9645 3.17444 1.61499 0
353 1 Si 22.5897 0.0833915 1.61408 0
354 1 Si 29.6261 2.23465 1.62206 0
355 1 Si 27.0405 4.30296 1.62579 0
356 1 Si 32.0477 4.39985 1.6226 0
357 1 Si 31.1579 7.44344 1.63489 0
358 1 Si 27.9485 7.52685 1.61422 0
359 1 Si 30.3503 175.532 1.6193 0
360 1 Si 26.234 171.355 1.61984 0
361 1 Si 29.3448 172.315 1.62197 0
362 1 Si 23.5241 173.388 1.62259 0
363 1 Si 35.2313 3.93934 1.63185 0
364 1 Si 37.4326 6.31052 1.64529 0
365 1 Si 33.292 9.87393 1.64309 0
366 1 Si 36.434 9.36265 1.62802 0
367 1 Si 35.8827 0.823991 1.63249 0
368 1 Si 33.5385 175.104 1.62661 0
369 1 Si 42.9732 4.18018 1.61922 0
370 1 Si 41.9088 1.26027 1.63368 0
371 1 Si 40.6295 6.40591 1.61883 0
372 1 Si 38.9618 0.0668006 1.61937 0
373 1 Si 46.2756 4.36991 1.61484 0
374 1 Si 48.608 1.78358 1.6381 0
375 1 Si 46.3448 7.65181 1.62499 0
376 1 Si 52.8686 4.8985 1.62525 0
377 1 Si 51.9528 1.7836 1.6251 0
378 1 Si 51.6365 7.81977 1.61743 0
379 1 Si 48.9372 9.4421 1.63529 0
380 1 Si 47.3857 175.285 1.61711 0
381 1 Si 44.2705 175.724 1.62515 0
382 1 Si 41.2408 9.56278 1.61328 0
383 1 Si 44.2865 10.2175 1.62404 0
384 1 Si 55.8006 6.05233 1.61564 0
385 1 Si 58.3323 4.24781 1.6157 0
386 1 Si 57.4976 0.951113 1.61892 0
387 1 Si 54.3313 175.801 1.62488 0
388 1 Si 54.5569 8.84472 1.61317 0
389 1 Si 64.0475 4.36721 1.60836 0
390 1 Si 61.1792 5.93224 1.61148 0
391 1 Si 63.649 1.19064 1.61722 0
392 1 Si 60.6101 176.368 1.61581 0
393 1 Si 184.316 32.7563 1.62444 0
394 1 Si 181.273 33.6339 1.61844 0
395 1 Si 66.6949 6.30975 1.62998 0
396 1 Si 65.2737 9.26177 1.61929 0
397 1 Si 62.0717 9.03424 1.63009 0
398 1 Si 66.2341 175.712 1.62387 0
399 1 Si 64.6325 172.889 1.61513 0
400 1 Si 61.3891 173.278 1.63398 0
401 1 Si 69.9883 6.02938 1.61922 0
402 1 Si 72.6319 3.92759 1.62046 0
403 1 Si 72.5412 0.660941 1.62553 0
404 1 Si 69.5612 175.655 1.61765 0
405 1 Si 189.858 33.148 1.63335 0
406 1 Si 186.958 34.5102 1.64123 0
407 1 Si 71.2529 9.06888 1.62916 0
408 1 Si 65.6776 12.4922 1.62071 0
409 1 Si 70.9474 12.395 1.62366 0
410 1 Si 68.3413 14.2608 1.61929 0
411 1 Si 75.4586 5.68681 1.6034 0
412 1 Si 74.3482 8.71341 1.60692 0
413 1 Si 192.504 34.7603 1.62891 0
414 1 Si 81.2995 4.04807 1.62065 0
415 1 Si 78.7269 6.09616 1.61849 0
416 1 Si 84.04 6.11516 1.62086 0
417 1 Si 80.0103 9.15719 1.61693 0
418 1 Si 83.2125 9.27267 1.62409 0
419 1 Si 81.0645 0.66414 1.63432 0
420 1 Si 78.607 174.778 1.63326 0
421 1 Si 75.2971 175.245 1.61787 0
422 1 Si 88.9175 3.02301 1.61723 0
423 1 Si 87.3973 5.95468 1.62194 0
424 1 Si 87.2605 0.274803 1.63833 0
425 1 Si 84.1137 176.061 1.63709 0
426 1 Si 92.2367 2.71123 1.62681 0
427 1 Si 94.0933 5.31163 1.6259 0
428 1 Si 89.5009 8.6642 1.63187 0
429 1 Si 92.8191 8.26913 1.62029 0
430 1 Si 94.1358 0.0364899 1.63085 0
431 1 Si 89.2635 174.281 1.63885 0
432 1 Si 92.4078 173.891 1.62976 0
433 1 Si 99.2718 2.65219 1.6244 0
434 1 Si 97.3286 5.24087 1.62404 0
435 1 Si 97.4589 176.42 1.6421 0
436 1 Si 98.3876 8.25717 1.62107 0
437 1 Si 104.33 173.963 1.61451 0
438 1 Si 101.788 172.055 1.62483 0
439 1 Si 98.8434 173.459 1.61054 0
440 1 Si 108.283 38.5424 1.62456 0
441 1 Si 106.133 40.8101 1.62349 0
442 1 Si 102.975 41.1446 1.62877 0
443 1 Si 100.494 36.2314 1.61833 0
444 1 Si 100.287 39.4295 1.61966 0
445 1 Si 114.008 38.5634 1.62557 0
446 1 Si 111.195 40.214 1.62476 0
447 1 Si 11.4166 10.8326 1.60771 0
448 1 Si 123.932 36.3372 1.61082 0
449 1 Si 119.187 37.9619 1.61583 0
450 1 Si 122.187 38.9813 1.63183 0
451 1 Si 127.009 36.6657 1.62979 0
452 1 Si 26.9106 10.6639 1.64035 0
453 1 Si 23.6139 11.0663 1.6543 0
454 1 Si 32.4746 12.9971 1.64015 0
455 1 Si 29.1576 13.2717 1.62891 0
456 1 Si 136.649 37.1935 1.61822 0
457 1 Si 145.096 37.4591 1.6327 0
458 1 Si 142.122 38.5065 1.58813 0
459 1 Si 139.055 39.1358 1.63611 0
460 1 Si 38.7663 11.5809 1.62439 0
461 1 Si 131.413 38.1313 1.62251 0
462 1 Si 134.167 39.5494 1.6217 0
463 1 Si 158.728 37.1166 1.61857 0
464 1 Si 156.086 38.7772 1.62991 0
465 1 Si 48.269 12.6324 1.62316 0
466 1 Si 45.1556 13.3584 1.62161 0
467 1 Si 163.844 37.9774 1.61731 0
468 1 Si 161.018 39.32 1.63998 0
469 1 Si 55.0314 11.8076 1.61345 0
470 1 Si 60.8154 12.0159 1.6302 0
471 1 Si 57.8516 13.0615 1.60604 0
472 1 Si 169.07 37.7003 1.62091 0
473 1 Si 166.552 39.7077 1.62518 0
474 1 Si 75.5864 11.6805 1.62208 0
475 1 Si 78.6984 12.1 1.63862 0
476 1 Si 85.0188 11.9967 1.64088 0
477 1 Si 88.3171 11.7951 1.62517 0
478 1 Si 175.083 36.9954 1.62678 0
479 1 Si 172.234 38.8209 1.63122 0
480 1 Si 180.947 37.0308 1.65476 0
481 1 Si 178.048 38.6736 1.62285 0
482 1 Si 95.6163 10.0203 1.62397 0
483 1 Si 116.921 40.3559 1.62759 0
484 1 Si 107.871 43.476 1.61251 0
485 1 Si 111.056 43.5538 1.64187 0
486 1 Si 16.9854 13.0318 1.61501 0
487 1 Si 11.8581 13.9853 1.65613 0
488 1 Si 14.4749 15.6128 1.60533 0
489 1 Si 128.463 39.4215 1.62916 0
490 1 Si 123.487 41.9166 1.63512 0
491 1 Si 126.762 42.151 1.6368 0
492 1 Si 22.7925 14.1899 1.62436 0
493 1 Si 19.6367 15.0266 1.62805 0
494 1 Si 147.54 39.5733 1.60507 0
495 1 Si 143.088 41.4674 1.6254 0
496 1 Si 146.037 42.2638 1.63683 0
497 1 Si 38.2748 14.7963 1.63476 0
498 1 Si 34.9509 15.3033 1.63297 0
499 1 Si 150.684 40.1547 1.6372 0
500 1 Si 53.1749 14.2931 1.61037 0
501 1 Si 50.1782 15.2732 1.63276 0
502 1 Si 62.9923 14.3527 1.61454 0
503 1 Si 186.511 37.6641 1.63189 0
504 1 Si 183.61 39.0964 1.64783 0
505 1 Si 73.6576 14.1972 1.60913 0
506 1 Si 80.1314 15.0467 1.63572 0
507 1 Si 83.4361 14.8866 1.64383 0
508 1 Si 191.851 37.8787 1.62537 0
509 1 Si 189.133 39.4718 1.62885 0
510 1 Si 194.602 39.3199 1.62134 0
511 1 Si 95.6962 13.2286 1.62312 0
512 1 Si 89.9544 14.7163 1.63074 0
513 1 Si 93.1531 15.236 1.61816 0
514 1 Si 203.628 38.5909 1.63138 0
515 1 Si 200.788 39.945 1.63526 0
516 1 Si 98.3659 15.0713 1.61597 0
517 1 Si 1.12264 40.4089 1.6338 0
518 1 Si 3.7677 38.6092 1.64314 0
519 1 Si 105.555 45.5518 1.63772 0
520 1 Si 102.622 44.2859 1.62396 0
521 1 Si 24.9599 16.6745 1.6369 0
522 1 Si 28.3154 16.5042 1.62861 0
523 1 Si 118.131 43.6477 1.63962 0
524 1 Si 121.468 44.4415 1.63334 0
525 1 Si 40.7316 17.157 1.63244 0
526 1 Si 43.9856 16.4686 1.65011 0
527 1 Si 138.416 42.2257 1.61468 0
528 1 Si 133.429 42.7691 1.60922 0
529 1 Si 136.147 44.2973 1.6189 0
530 1 Si 56.0145 15.6489 1.61271 0
531 1 Si 141.085 43.7616 1.62959 0
532 1 Si 56.4417 18.7707 1.61589 0
533 1 Si 62.4715 17.5937 1.63912 0
534 1 Si 59.6327 19.4141 1.60973 0
535 1 Si 156.875 41.9736 1.63277 0
536 1 Si 160.109 42.4112 1.61435 0
537 1 Si 78.2409 17.8382 1.6431 0
538 1 Si 74.7713 17.2701 1.6253 0
539 1 Si 166.956 42.903 1.62234 0
540 1 Si 161.633 45.3924 1.62849 0
541 1 Si 164.993 45.5507 1.62762 0
542 1 Si 172.648 42.1297 1.64109 0
543 1 Si 169.999 43.9619 1.63363 0
544 1 Si 85.1778 17.6219 1.64417 0
545 1 Si 88.4358 17.6381 1.63586 0
546 1 Si 178.246 42.0858 1.64018 0
547 1 Si 175.485 43.8465 1.64474 0
548 1 Si 94.42 18.2468 1.63121 0
549 1 Si 97.5697 18.2045 1.62623 0
550 1 Si 112.912 46.4282 1.6215 0
551 1 Si 116.24 46.4068 1.63746 0
552 1 Si 128.262 45.027 1.61495 0
553 1 Si 131.461 45.2843 1.63409 0
554 1 Si 19.7697 18.2888 1.62588 0
555 1 Si 13.932 19.1952 1.60343 0
556 1 Si 17.185 20.4311 1.62386 0
557 1 Si 146.865 45.247 1.62945 0
558 1 Si 141.708 46.7891 1.62564 0
559 1 Si 144.718 47.5281 1.63586 0
560 1 Si 23.0048 19.2756 1.62807 0
561 1 Si 34.1559 18.4631 1.62602 0
562 1 Si 30.781 18.9652 1.62565 0
563 1 Si 40.0431 20.4483 1.63763 0
564 1 Si 36.7323 20.6997 1.63455 0
565 1 Si 49.282 18.4721 1.62449 0
566 1 Si 46.0798 19.0491 1.62819 0
567 1 Si 54.2732 21.3215 1.61958 0
568 1 Si 50.8988 21.3609 1.62361 0
569 1 Si 183.748 42.4628 1.64725 0
570 1 Si 180.961 44.1215 1.64596 0
571 1 Si 65.3412 19.2157 1.64621 0
572 1 Si 68.3553 17.5885 1.60764 0
573 1 Si 189.087 42.6877 1.63777 0
574 1 Si 186.428 44.485 1.63685 0
575 1 Si 80.2187 20.6478 1.62464 0
576 1 Si 83.507 20.3919 1.6132 0
577 1 Si 194.667 42.4604 1.62451 0
578 1 Si 191.92 44.0937 1.62596 0
579 1 Si 90.0521 20.4824 1.62541 0
580 1 Si 93.186 21.2275 1.62562 0
581 1 Si 200.18 43.156 1.64548 0
582 1 Si 197.18 44.3986 1.62209 0
583 1 Si 99.265 20.9989 1.6315 0
584 1 Si 0.728162 43.6197 1.6275 0
585 1 Si 202.807 45.1288 1.62869 0
586 1 Si 11.2907 21.6619 1.64655 0
587 1 Si 3.55905 45.2206 1.64319 0
588 1 Si 6.54447 40.1869 1.63527 0
589 1 Si 6.37064 43.4897 1.64487 0
590 1 Si 111.988 49.7339 1.61908 0
591 1 Si 106.181 48.6028 1.60851 0
592 1 Si 108.876 50.3156 1.62211 0
593 1 Si 18.4605 23.6918 1.61838 0
594 1 Si 12.0585 25.0436 1.62059 0
595 1 Si 14.2329 27.8127 1.62782 0
596 1 Si 17.4039 26.913 1.62145 0
597 1 Si 24.2318 22.3879 1.63277 0
598 1 Si 30.2658 22.242 1.64754 0
599 1 Si 27.3564 23.811 1.63376 0
600 1 Si 123.182 47.3714 1.64029 0
601 1 Si 117.818 49.3611 1.61287 0
602 1 Si 121.054 49.8407 1.62517 0
603 1 Si 126.588 47.8375 1.61543 0
604 1 Si 45.4383 22.2847 1.61545 0
605 1 Si 42.2098 23.2172 1.63297 0
606 1 Si 136.536 47.4414 1.62455 0
607 1 Si 139.39 48.9474 1.62588 0
608 1 Si 133.388 47.9137 1.62582 0
609 1 Si 59.2223 22.6837 1.61665 0
610 1 Si 56.1947 24.0012 1.62285 0
611 1 Si 64.5829 22.4063 1.61441 0
612 1 Si 61.9568 24.3288 1.61827 0
613 1 Si 71.6205 18.5375 1.61002 0
614 1 Si 170.032 47.1674 1.62687 0
615 1 Si 166.962 48.2856 1.61766 0
616 1 Si 71.7842 21.5864 1.65298 0
617 1 Si 79.6409 23.9162 1.61041 0
618 1 Si 74.1526 23.5132 1.59537 0
619 1 Si 76.7625 25.1295 1.62511 0
620 1 Si 181.327 47.5358 1.6404 0
621 1 Si 175.662 47.2058 1.64591 0
622 1 Si 178.446 49.0791 1.64211 0
623 1 Si 85.4035 22.9474 1.64723 0
624 1 Si 88.5395 23.2099 1.64211 0
625 1 Si 186.935 47.8655 1.63674 0
626 1 Si 184.107 49.5935 1.62877 0
627 1 Si 94.6498 24.2655 1.62722 0
628 1 Si 97.9533 24.1014 1.62442 0
629 1 Si 202.649 48.4414 1.6368 0
630 1 Si 0.501466 49.9845 1.64177 0
631 1 Si 3.45311 48.5099 1.63392 0
632 1 Si 116.741 52.4749 1.62398 0
633 1 Si 113.549 52.822 1.62239 0
634 1 Si 128.844 50.4427 1.63064 0
635 1 Si 132.294 50.852 1.62601 0
636 1 Si 21.7072 24.4694 1.63494 0
637 1 Si 145.905 50.4089 1.63153 0
638 1 Si 140.57 52.0181 1.6244 0
639 1 Si 143.838 52.9085 1.61677 0
640 1 Si 32.9203 24.1813 1.62945 0
641 1 Si 36.099 23.8269 1.62774 0
642 1 Si 48.4684 23.7387 1.6225 0
643 1 Si 48.9596 27.052 1.6241 0
644 1 Si 55.3507 27.2829 1.63346 0
645 1 Si 52.1136 28.2293 1.59773 0
646 1 Si 172.809 48.8374 1.6488 0
647 1 Si 66.6923 24.7137 1.61958 0
648 1 Si 69.5468 23.6963 1.62123 0
649 1 Si 192.445 47.1905 1.62184 0
650 1 Si 190.049 49.3562 1.62554 0
651 1 Si 84.6389 25.9661 1.63829 0
652 1 Si 81.5883 26.6011 1.61486 0
653 1 Si 195.67 47.2754 1.61974 0
654 1 Si 89.8065 26.1282 1.63524 0
655 1 Si 92.8666 27.1315 1.63804 0
656 1 Si 200.139 50.6181 1.6134 0
657 1 Si 196.968 50.1434 1.61736 0
658 1 Si 99.785 26.8702 1.65525 0
659 1 Si 103.418 50.2868 1.62963 0
660 1 Si 99.7357 45.6337 1.6122 0
661 1 Si 100.344 48.9021 1.62495 0
662 1 Si 107.877 53.31 1.60919 0
663 1 Si 104.704 53.2556 1.60512 0
664 1 Si 121.76 53.0295 1.61954 0
665 1 Si 127.664 53.4249 1.6277 0
666 1 Si 124.628 54.5636 1.63444 0
667 1 Si 119.042 54.849 1.61118 0
668 1 Si 27.9822 27.1217 1.63131 0
669 1 Si 33.2179 27.311 1.62356 0
670 1 Si 30.6763 29.029 1.63547 0
671 1 Si 134.913 53.1245 1.64513 0
672 1 Si 138.213 54.2263 1.6367 0
673 1 Si 41.3237 26.6298 1.63089 0
674 1 Si 38.0342 26.5 1.63041 0
675 1 Si 46.6605 29.6043 1.60692 0
676 1 Si 43.136 29.8162 1.65794 0
677 1 Si 62.6574 27.5434 1.61805 0
678 1 Si 57.4254 30.0347 1.61317 0
679 1 Si 61.0247 30.3862 1.63784 0
680 1 Si 166.667 51.6539 1.63244 0
681 1 Si 163.6 53.1033 1.62757 0
682 1 Si 172.646 52.0913 1.6286 0
683 1 Si 169.588 53.4423 1.61504 0
684 1 Si 65.8739 27.7591 1.61869 0
685 1 Si 178.498 52.4087 1.64707 0
686 1 Si 175.508 53.7401 1.64276 0
687 1 Si 71.8753 25.606 1.59759 0
688 1 Si 184.208 53.0524 1.63092 0
689 1 Si 181.173 54.4561 1.63932 0
690 1 Si 87.1858 27.8425 1.63935 0
691 1 Si 191.744 52.2935 1.6263 0
692 1 Si 186.868 55.2068 1.63609 0
693 1 Si 190.185 55.0856 1.61785 0
694 1 Si 200.01 53.921 1.6202 0
695 1 Si 0.218589 53.2253 1.62056 0
696 1 Si 202.806 55.4576 1.62509 0
697 1 Si 93.3025 30.5392 1.62596 0
698 1 Si 99.3526 30.169 1.63078 0
699 1 Si 96.5034 31.9642 1.63881 0
700 1 Si 109.333 56.0934 1.62214 0
701 1 Si 112.546 56.0589 1.63061 0
702 1 Si 129.912 55.7105 1.62055 0
703 1 Si 124.654 57.8178 1.62285 0
704 1 Si 126.881 60.1523 1.61657 0
705 1 Si 129.671 58.873 1.62932 0
706 1 Si 10.6653 32.076 1.63097 0
707 1 Si 13.767 31.3719 1.62768 0
708 1 Si 133.035 55.603 1.643 0
709 1 Si 22.6169 27.6409 1.63795 0
710 1 Si 19.8719 29.3044 1.60151 0
711 1 Si 25.587 29.2029 1.63393 0
712 1 Si 145.323 55.9538 1.61217 0
713 1 Si 35.9809 28.9161 1.62557 0
714 1 Si 51.9192 31.5109 1.60067 0
715 1 Si 48.6323 32.4044 1.62145 0
716 1 Si 73.0999 28.3663 1.63543 0
717 1 Si 67.9724 30.1498 1.62429 0
718 1 Si 71.1115 30.6466 1.60398 0
719 1 Si 195.04 52.745 1.60696 0
720 1 Si 76.1989 28.2494 1.6152 0
721 1 Si 81.2475 29.8737 1.64949 0
722 1 Si 78.0886 30.7753 1.63237 0
723 1 Si 197.028 55.3158 1.60724 0
724 1 Si 87.2027 30.968 1.6178 0
725 1 Si 83.9797 31.8261 1.62532 0
726 1 Si 90.2978 32.3331 1.62971 0
727 1 Si 107.176 58.4266 1.61197 0
728 1 Si 104.61 56.4683 1.61999 0
729 1 Si 2.75756 55.0563 1.63236 0
730 1 Si 6.22794 50.3884 1.6364 0
731 1 Si 5.7406 53.7878 1.62974 0
732 1 Si 119.28 58.1955 1.63137 0
733 1 Si 122.159 59.7648 1.63358 0
734 1 Si 113.914 59.1098 1.6509 0
735 1 Si 116.985 60.4943 1.62421 0
736 1 Si 139.716 57.3107 1.62399 0
737 1 Si 134.391 58.3766 1.6234 0
738 1 Si 137.31 59.3741 1.63655 0
739 1 Si 142.902 58.6448 1.62326 0
740 1 Si 26.9622 32.3637 1.62955 0
741 1 Si 21.1028 32.5095 1.63227 0
742 1 Si 24.2413 34.0956 1.62529 0
743 1 Si 32.3766 31.8889 1.62451 0
744 1 Si 30.0693 34.1014 1.62253 0
745 1 Si 35.7329 32.1259 1.64123 0
746 1 Si 41.7125 33.304 1.65303 0
747 1 Si 38.2869 34.4783 1.63257 0
748 1 Si 162.782 56.3912 1.62389 0
749 1 Si 159.581 56.7212 1.6009 0
750 1 Si 55.1541 32.572 1.61289 0
751 1 Si 169.805 56.6906 1.64551 0
752 1 Si 164.408 59.2288 1.63291 0
753 1 Si 167.635 59.0216 1.62207 0
754 1 Si 156.898 58.4858 1.62818 0
755 1 Si 56.3264 35.689 1.62743 0
756 1 Si 63.5817 32.9579 1.62002 0
757 1 Si 59.678 36.4869 1.59525 0
758 1 Si 63.1449 36.1649 1.63402 0
759 1 Si 175.409 56.9518 1.63869 0
760 1 Si 172.599 58.2926 1.6316 0
761 1 Si 180.678 57.7488 1.62644 0
762 1 Si 177.775 59.054 1.62246 0
763 1 Si 186.895 58.4584 1.61179 0
764 1 Si 181.994 60.7515 1.61933 0
765 1 Si 185.102 61.1236 1.6174 0
766 1 Si 192.052 57.8361 1.61824 0
767 1 Si 189.718 59.9911 1.6221 0
768 1 Si 203.363 58.7707 1.59338 0
769 1 Si 195.361 58.153 1.62746 0
770 1 Si 196.794 61.0383 1.62265 0
771 1 Si 199.545 62.627 1.62577 0
772 1 Si 202.675 62.189 1.62252 0
773 1 Si 9.04066 34.8847 1.6321 0
774 1 Si 1.44612 57.9972 1.60848 0
775 1 Si 108.553 61.3216 1.62724 0
776 1 Si 111.771 61.4777 1.63455 0
777 1 Si 18.6909 34.6229 1.612 0
778 1 Si 15.4205 34.4019 1.62698 0
779 1 Si 123.156 62.9078 1.62179 0
780 1 Si 126.365 63.3422 1.61935 0
781 1 Si 132.25 60.6394 1.61273 0
782 1 Si 151.022 61.3699 1.62108 0
783 1 Si 142.959 62.3663 1.62278 0
784 1 Si 149.048 64.0428 1.6189 0
785 1 Si 145.825 64.666 1.62239 0
786 1 Si 47.2928 35.5693 1.61808 0
787 1 Si 43.9341 35.9522 1.62028 0
788 1 Si 156.986 61.6626 1.63198 0
789 1 Si 153.963 62.8792 1.62329 0
790 1 Si 54.4208 38.4183 1.60307 0
791 1 Si 48.5414 38.7137 1.61375 0
792 1 Si 51.6033 40.0669 1.62587 0
793 1 Si 66.9997 33.1428 1.62103 0
794 1 Si 72.7438 33.3895 1.60338 0
795 1 Si 69.8622 34.9437 1.64273 0
796 1 Si 76.0765 33.4273 1.62421 0
797 1 Si 83.8629 35.051 1.64886 0
798 1 Si 77.5808 36.2447 1.62479 0
799 1 Si 80.8928 36.4359 1.61824 0
800 1 Si 107.731 64.43 1.6181 0
801 1 Si 104.858 65.8542 1.61636 0
802 1 Si 102.081 63.8414 1.62216 0
803 1 Si 101.731 57.5126 1.63367 0
804 1 Si 101.302 60.6531 1.59795 0
805 1 Si 118.181 63.7785 1.62436 0
806 1 Si 112.855 64.4628 1.62848 0
807 1 Si 115.756 65.838 1.63558 0
808 1 Si 89.8792 35.6233 1.62328 0
809 1 Si 86.767 36.7002 1.62959 0
810 1 Si 121.206 65.4889 1.63879 0
811 1 Si 97.2411 35.2874 1.61277 0
812 1 Si 95.2259 38.0239 1.62773 0
813 1 Si 91.8797 38.3019 1.62027 0
814 1 Si 136.797 62.5448 1.62175 0
815 1 Si 133.582 63.4771 1.64058 0
816 1 Si 139.772 63.8814 1.61987 0
817 1 Si 19.6963 37.6773 1.61955 0
818 1 Si 14.5582 37.6753 1.63533 0
819 1 Si 17.1365 39.5624 1.64224 0
820 1 Si 25.264 37.2926 1.62398 0
821 1 Si 22.5487 39.0309 1.63578 0
822 1 Si 159.871 63.3282 1.63932 0
823 1 Si 163.065 62.2953 1.64127 0
824 1 Si 31.0794 37.4298 1.62036 0
825 1 Si 28.1302 38.998 1.64671 0
826 1 Si 37.3958 38.0256 1.62613 0
827 1 Si 34.0465 39.3542 1.64901 0
828 1 Si 172.526 61.437 1.6371 0
829 1 Si 169.424 61.6564 1.62439 0
830 1 Si 43.169 39.2687 1.63736 0
831 1 Si 39.9287 40.4949 1.62661 0
832 1 Si 153.911 66.1095 1.63273 0
833 1 Si 150.816 66.8417 1.60234 0
834 1 Si 59.5523 39.6631 1.62981 0
835 1 Si 56.6064 40.7547 1.61505 0
836 1 Si 177.577 62.3018 1.63559 0
837 1 Si 174.733 63.7474 1.63676 0
838 1 Si 66.1791 38.1892 1.62608 0
839 1 Si 62.0654 41.5618 1.61956 0
840 1 Si 65.2799 41.2295 1.62356 0
841 1 Si 180.456 63.6831 1.61161 0
842 1 Si 69.7062 38.1744 1.63155 0
843 1 Si 97.2338 40.6373 1.61232 0
844 1 Si 189.614 63.2405 1.62371 0
845 1 Si 186.477 64.1253 1.61928 0
846 1 Si 9.14588 38.1605 1.63573 0
847 1 Si 195.369 63.8705 1.60328 0
848 1 Si 192.356 65.0036 1.64026 0
849 1 Si 198.137 65.4478 1.60643 0
850 1 Si 2.05328 63.6859 1.58092 0
851 1 Si 3.03725 60.6165 1.61468 0
852 1 Si 204.36 65.3674 1.6405 0
853 1 Si 11.9413 39.7344 1.63349 0
854 1 Si 110.334 66.3569 1.60588 0
855 1 Si 128.098 66.1753 1.62614 0
856 1 Si 131.529 66.1345 1.61227 0
857 1 Si 138.847 67.0057 1.64925 0
858 1 Si 146.607 68.0405 1.60377 0
859 1 Si 141.372 68.7783 1.58042 0
860 1 Si 144.205 69.9627 1.63844 0