ITEM: TIMESTEP
3251
ITEM: NUMBER OF ATOMS
15348
ITEM: BOX BOUNDS pp pp pp
0.0000000000000000e+00 2.0284645295414344e+02
0.0000000000000000e+00 1.7623329101903064e+02
-1.0000000000000000e+02 1.0000000000000000e+02
ITEM: ATOMS id type element x y z v_uncoordination
1 1 Si 175.767 48.8529 1.6166 0
2 1 Si 173.4 46.489 1.63732 0
3 1 Si 178.925 48.3966 1.62277 0
4 1 Si 175.048 43.5965 1.62391 0
5 1 Si 178.239 42.744 1.61826 0
6 1 Si 180.142 45.358 1.63205 0
7 1 Si 176.475 52.0452 1.62616 0
8 1 Si 169.979 47.0102 1.64551 0
9 1 Si 169.022 50.2208 1.62357 0
10 1 Si 171.059 52.6323 1.59588 0
11 1 Si 173.942 53.8091 1.64735 0
12 1 Si 180.435 51.3296 1.64388 0
13 1 Si 179.014 54.2104 1.61918 0
14 1 Si 108.238 3.15419 1.62945 0
15 1 Si 111.444 3.71204 1.6219 0
16 1 Si 106.097 5.56606 1.62012 0
17 1 Si 111.861 6.88115 1.63228 0
18 1 Si 106.778 8.72015 1.61817 0
19 1 Si 109.863 9.44489 1.6366 0
20 1 Si 107.279 0.0977945 1.63614 0
21 1 Si 113.888 1.48589 1.62596 0
22 1 Si 109.66 174.029 1.63674 0
23 1 Si 112.903 174.572 1.64351 0
24 1 Si 102.893 5.27318 1.61792 0
25 1 Si 101.709 2.19432 1.6354 0
26 1 Si 104.002 176.017 1.62764 0
27 1 Si 117.472 5.93505 1.62973 0
28 1 Si 117.119 2.47122 1.63098 0
29 1 Si 114.84 7.87855 1.62599 0
30 1 Si 124.155 3.41314 1.6207 0
31 1 Si 127.525 3.63336 1.62922 0
32 1 Si 122.867 6.62872 1.62983 0
33 1 Si 127.656 6.88402 1.61148 0
34 1 Si 125.153 8.91408 1.60406 0
35 1 Si 122.783 0.246831 1.63313 0
36 1 Si 130.303 1.52325 1.62158 0
37 1 Si 130.813 174.438 1.62373 0
38 1 Si 127.964 172.61 1.63339 0
39 1 Si 124.708 173.579 1.61697 0
40 1 Si 119.953 8.24536 1.63226 0
41 1 Si 119.36 176.046 1.62441 0
42 1 Si 134.604 5.23902 1.63 0
43 1 Si 132.981 7.97428 1.61342 0
44 1 Si 133.558 2.23178 1.6212 0
45 1 Si 130.01 8.96431 1.63862 0
46 1 Si 137.693 6.06962 1.6174 0
47 1 Si 137.729 9.26839 1.63893 0
48 1 Si 134.864 10.5425 1.62375 0
49 1 Si 136.088 0.0423421 1.61647 0
50 1 Si 134.193 173.501 1.62351 0
51 1 Si 140.259 4.19149 1.62632 0
52 1 Si 139.514 0.905119 1.62611 0
53 1 Si 143.026 6.05368 1.63197 0
54 1 Si 142.956 9.53204 1.63434 0
55 1 Si 140.148 11.2986 1.62066 0
56 1 Si 145.623 3.91534 1.61946 0
57 1 Si 145.553 0.525347 1.61933 0
58 1 Si 142.405 175.324 1.63327 0
59 1 Si 151.148 3.17588 1.59242 0
60 1 Si 148.603 5.15903 1.63258 0
61 1 Si 153.824 4.89199 1.59929 0
62 1 Si 152.94 8.00959 1.62341 0
63 1 Si 149.704 8.22921 1.61948 0
64 1 Si 151.793 0.0159643 1.62478 0
65 1 Si 148.617 175.142 1.63897 0
66 1 Si 156.014 2.47594 1.63234 0
67 1 Si 155.129 175.512 1.63083 0
68 1 Si 158.862 7.01715 1.59973 0
69 1 Si 158.914 3.7721 1.64862 0
70 1 Si 157.68 10.0159 1.63155 0
71 1 Si 154.601 10.7733 1.62957 0
72 1 Si 163.542 4.91433 1.6422 0
73 1 Si 161.949 7.60894 1.60224 0
74 1 Si 161.794 2.26534 1.61866 0
75 1 Si 166.58 5.66562 1.63128 0
76 1 Si 167.397 8.76006 1.61201 0
77 1 Si 162.498 10.7355 1.6291 0
78 1 Si 165.561 11.4483 1.64039 0
79 1 Si 168.593 3.19039 1.61769 0
80 1 Si 166.744 0.189699 1.64045 0
81 1 Si 163.325 175.591 1.62379 0
82 1 Si 171.419 5.13845 1.63153 0
83 1 Si 170.597 8.35848 1.60476 0
84 1 Si 174.583 4.01303 1.62519 0
85 1 Si 174.257 0.690381 1.6109 0
86 1 Si 168.751 173.847 1.62396 0
87 1 Si 172.017 174.449 1.62096 0
88 1 Si 179.517 2.31569 1.62342 0
89 1 Si 177.863 5.30143 1.63055 0
90 1 Si 177.376 176.032 1.60679 0
91 1 Si 182.683 1.11568 1.63464 0
92 1 Si 185.776 2.33071 1.62189 0
93 1 Si 187.315 5.26156 1.63045 0
94 1 Si 179.467 8.74976 1.63772 0
95 1 Si 186.259 8.41516 1.63214 0
96 1 Si 182.851 9.76416 1.62792 0
97 1 Si 183.099 174.073 1.62587 0
98 1 Si 177.973 172.864 1.63411 0
99 1 Si 180.911 171.785 1.62773 0
100 1 Si 188.271 0.18175 1.62319 0
101 1 Si 190.598 4.69141 1.62392 0
102 1 Si 191.165 1.51629 1.62144 0
103 1 Si 185.575 172.047 1.63743 0
104 1 Si 188.5 173.195 1.65308 0
105 1 Si 196.433 5.07022 1.62453 0
106 1 Si 193.397 6.39042 1.64063 0
107 1 Si 199.094 7.16587 1.63831 0
108 1 Si 199.012 10.5944 1.63262 0
109 1 Si 192.915 9.58653 1.6321 0
110 1 Si 195.713 11.627 1.62242 0
111 1 Si 196.676 1.67089 1.63761 0
112 1 Si 193.964 175.984 1.62793 0
113 1 Si 201.841 5.37614 1.61586 0
114 1 Si 202.001 2.20052 1.60471 0
115 1 Si 199.615 0.143616 1.63283 0
116 1 Si 2.21811 5.593 1.63114 0
117 1 Si 2.12632 11.3181 1.61264 0
118 1 Si 3.5973 8.40926 1.63652 0
119 1 Si 201.922 12.6528 1.64964 0
120 1 Si 4.36632 3.1152 1.62458 0
121 1 Si 2.07532 0.889354 1.62952 0
122 1 Si 104.303 10.8088 1.61867 0
123 1 Si 101.949 8.44721 1.63679 0
124 1 Si 114.232 11.063 1.62227 0
125 1 Si 111.258 12.3759 1.61414 0
126 1 Si 119.537 11.7467 1.61961 0
127 1 Si 116.566 13.1484 1.61957 0
128 1 Si 129.087 12.0428 1.6301 0
129 1 Si 125.89 12.0918 1.63056 0
130 1 Si 134.104 13.6503 1.6277 0
131 1 Si 131.015 14.5899 1.61916 0
132 1 Si 148.473 11.2414 1.62295 0
133 1 Si 145.29 11.8643 1.62298 0
134 1 Si 159.804 12.4722 1.62248 0
135 1 Si 171.598 11.4316 1.63829 0
136 1 Si 174.62 12.5204 1.62363 0
137 1 Si 177.734 11.7597 1.63394 0
138 1 Si 189.454 9.85412 1.63509 0
139 1 Si 183.009 13.1171 1.61752 0
140 1 Si 189.089 12.9558 1.62751 0
141 1 Si 186.064 13.954 1.61917 0
142 1 Si 4.80936 13.0891 1.62056 0
143 1 Si 6.79686 8.03173 1.60722 0
144 1 Si 7.26572 11.1107 1.62078 0
145 1 Si 104.673 14.1845 1.62692 0
146 1 Si 110.517 15.673 1.63699 0
147 1 Si 107.245 16.4218 1.63371 0
148 1 Si 121.112 14.7386 1.63862 0
149 1 Si 124.451 15.0378 1.63946 0
150 1 Si 136.407 15.9097 1.62793 0
151 1 Si 139.429 14.5491 1.6256 0
152 1 Si 153.543 13.9067 1.63224 0
153 1 Si 150.253 13.993 1.61417 0
154 1 Si 158.963 15.6415 1.62745 0
155 1 Si 155.722 16.4317 1.62651 0
156 1 Si 199.618 50.4836 1.61944 0
157 1 Si 197.256 48.245 1.61659 0
158 1 Si 202.803 49.7081 1.61404 0
159 1 Si 198.871 45.3973 1.60719 0
160 1 Si 202.19 46.3667 1.63449 0
161 1 Si 198.922 53.5826 1.63559 0
162 1 Si 193.953 48.4438 1.63271 0
163 1 Si 191.839 50.9037 1.63115 0
164 1 Si 192.725 53.8635 1.64467 0
165 1 Si 195.851 54.4711 1.61055 0
166 1 Si 2.37157 52.219 1.62511 0
167 1 Si 201.197 55.8923 1.62247 0
168 1 Si 1.58537 55.4608 1.62274 0
169 1 Si 169.403 13.8733 1.60985 0
170 1 Si 166.237 14.6578 1.63727 0
171 1 Si 174.112 15.6529 1.61645 0
172 1 Si 171.111 16.4934 1.62718 0
173 1 Si 178.312 15.0897 1.63718 0
174 1 Si 181.322 16.0641 1.63515 0
175 1 Si 194.783 14.8319 1.62707 0
176 1 Si 191.549 15.0336 1.62558 0
177 1 Si 202.209 16.1194 1.62308 0
178 1 Si 196.419 17.7231 1.64099 0
179 1 Si 199.62 17.9784 1.61537 0
180 1 Si 101.995 16.0768 1.62133 0
181 1 Si 98.7801 9.11 1.63573 0
182 1 Si 97.6175 12.1649 1.61411 0
183 1 Si 98.8271 15.194 1.63357 0
184 1 Si 115.905 16.3399 1.6087 0
185 1 Si 113.029 18.0491 1.63448 0
186 1 Si 118.995 17.3598 1.61177 0
187 1 Si 129.991 17.6945 1.62456 0
188 1 Si 135.497 19.1534 1.63036 0
189 1 Si 132.286 20.2102 1.63634 0
190 1 Si 144.925 15.1373 1.61476 0
191 1 Si 141.964 16.5954 1.63501 0
192 1 Si 147.985 16.3547 1.63344 0
193 1 Si 164.433 17.5909 1.62179 0
194 1 Si 161.206 18.027 1.62912 0
195 1 Si 176.388 17.8 1.61619 0
196 1 Si 186.673 16.9859 1.62447 0
197 1 Si 181.755 19.4617 1.61567 0
198 1 Si 184.919 19.5298 1.61213 0
199 1 Si 189.77 17.6033 1.63148 0
200 1 Si 1.2335 19.0063 1.63775 0
201 1 Si 4.4231 19.0768 1.63696 0
202 1 Si 5.69902 16.1483 1.61706 0
203 1 Si 106.212 19.6315 1.61572 0
204 1 Si 102.982 19.192 1.61383 0
205 1 Si 126.64 17.6524 1.63218 0
206 1 Si 119.335 20.6426 1.63678 0
207 1 Si 125.695 20.7445 1.6344 0
208 1 Si 122.529 21.6723 1.61183 0
209 1 Si 141.091 19.7448 1.62029 0
210 1 Si 138.111 21.1695 1.62753 0
211 1 Si 148.727 19.5238 1.63547 0
212 1 Si 151.759 20.7449 1.61582 0
213 1 Si 154.863 19.6523 1.63286 0
214 1 Si 170.217 19.4577 1.59757 0
215 1 Si 164.743 20.9435 1.64693 0
216 1 Si 167.836 21.4724 1.62014 0
217 1 Si 175.58 21.0287 1.64231 0
218 1 Si 172.439 21.7099 1.59754 0
219 1 Si 195.499 20.8923 1.61732 0
220 1 Si 190.036 20.7087 1.63897 0
221 1 Si 192.686 22.4135 1.62498 0
222 1 Si 200.39 21.0782 1.61818 0
223 1 Si 197.958 23.0079 1.62365 0
224 1 Si 0.465278 22.3052 1.60072 0
225 1 Si 113.219 21.593 1.63442 0
226 1 Si 116.532 22.6679 1.6202 0
227 1 Si 127.938 23.1937 1.63062 0
228 1 Si 131.249 23.4838 1.63464 0
229 1 Si 146.48 21.9009 1.6127 0
230 1 Si 143.253 22.1328 1.63848 0
231 1 Si 151.104 23.9159 1.61877 0
232 1 Si 148.016 24.7365 1.609 0
233 1 Si 160.265 21.1882 1.61532 0
234 1 Si 157.157 22.0708 1.62936 0
235 1 Si 162.56 23.515 1.60443 0
236 1 Si 180.774 22.7377 1.63585 0
237 1 Si 177.558 23.6752 1.63419 0
238 1 Si 187.079 21.8339 1.6195 0
239 1 Si 107.287 22.858 1.61585 0
240 1 Si 110.43 23.9661 1.61946 0
241 1 Si 123.043 24.8417 1.62095 0
242 1 Si 117.213 25.9444 1.64103 0
243 1 Si 120.438 26.6613 1.62996 0
244 1 Si 126.14 25.815 1.6244 0
245 1 Si 138.359 24.4564 1.6182 0
246 1 Si 141.614 24.9194 1.61272 0
247 1 Si 156.407 25.2907 1.62402 0
248 1 Si 153.279 26.2347 1.62961 0
249 1 Si 170.002 23.7199 1.62929 0
250 1 Si 186.329 24.8673 1.62293 0
251 1 Si 183.024 25.2646 1.6355 0
252 1 Si 192.287 25.6491 1.61847 0
253 1 Si 189.111 26.6838 1.63973 0
254 1 Si 198.303 26.2292 1.62004 0
255 1 Si 195.166 27.282 1.62712 0
256 1 Si 0.953666 25.7031 1.6332 0
257 1 Si 201.23 27.9717 1.63779 0
258 1 Si 105.199 25.5305 1.62281 0
259 1 Si 101.968 24.8048 1.63265 0
260 1 Si 100.913 21.6457 1.62735 0
261 1 Si 109.681 27.4108 1.6259 0
262 1 Si 115.145 28.5732 1.61246 0
263 1 Si 112.034 29.7328 1.63794 0
264 1 Si 132.731 26.706 1.6367 0
265 1 Si 127.379 28.8239 1.63057 0
266 1 Si 130.654 29.5337 1.63238 0
267 1 Si 136.197 27.0422 1.64406 0
268 1 Si 143.17 27.7734 1.63111 0
269 1 Si 146.443 27.5775 1.63223 0
270 1 Si 161.88 26.9653 1.63814 0
271 1 Si 158.538 27.8139 1.61338 0
272 1 Si 169.947 26.8434 1.65168 0
273 1 Si 167.427 28.9159 1.61352 0
274 1 Si 164.17 29.549 1.64072 0
275 1 Si 176.229 26.7903 1.62689 0
276 1 Si 173.094 27.5522 1.60172 0
277 1 Si 182.485 28.4942 1.61123 0
278 1 Si 177.196 29.9807 1.63965 0
279 1 Si 180.274 30.9271 1.64159 0
280 1 Si 3.98888 27.085 1.63508 0
281 1 Si 6.43518 21.6628 1.60742 0
282 1 Si 6.54575 24.9255 1.63228 0
283 1 Si 106.467 28.6755 1.62637 0
284 1 Si 121.703 29.5702 1.61462 0
285 1 Si 124.716 30.6289 1.61411 0
286 1 Si 137.992 29.9157 1.62227 0
287 1 Si 141.29 30.4355 1.62708 0
288 1 Si 151.595 29.0297 1.62915 0
289 1 Si 148.479 30.049 1.63095 0
290 1 Si 153.398 31.5843 1.63116 0
291 1 Si 156.641 30.6667 1.6371 0
292 1 Si 172.431 30.603 1.59475 0
293 1 Si 169.402 31.381 1.62827 0
294 1 Si 188.221 29.7595 1.62465 0
295 1 Si 185.092 30.3251 1.60538 0
296 1 Si 195.262 30.4134 1.63391 0
297 1 Si 189.888 32.4634 1.62999 0
298 1 Si 192.958 32.4952 1.60134 0
299 1 Si 201.723 31.4895 1.62915 0
300 1 Si 0.664452 34.4092 1.62268 0
301 1 Si 3.7454 33.6267 1.63512 0
302 1 Si 4.62781 30.4097 1.61494 0
303 1 Si 104.775 32.1568 1.63229 0
304 1 Si 101.368 32.6949 1.62571 0
305 1 Si 99.5686 27.0311 1.62615 0
306 1 Si 99.1566 30.2667 1.63153 0
307 1 Si 116.495 31.4847 1.62993 0
308 1 Si 111.689 33.1106 1.61766 0
309 1 Si 114.757 34.1421 1.62064 0
310 1 Si 119.59 31.8617 1.61731 0
311 1 Si 131.431 32.9022 1.63883 0
312 1 Si 124.088 33.7387 1.64115 0
313 1 Si 129.476 35.549 1.6114 0
314 1 Si 126.322 35.9127 1.63189 0
315 1 Si 137.087 33.0235 1.62045 0
316 1 Si 134.295 34.5652 1.62752 0
317 1 Si 148.014 33.2983 1.63941 0
318 1 Si 151.202 34.0954 1.62801 0
319 1 Si 157.636 33.7018 1.63285 0
320 1 Si 160.749 34.5627 1.62491 0
321 1 Si 163.584 32.9583 1.63405 0
322 1 Si 175.006 32.4179 1.59907 0
323 1 Si 184.348 33.3558 1.62453 0
324 1 Si 181.281 34.1137 1.60145 0
325 1 Si 197.11 32.8823 1.61688 0
326 1 Si 199.876 34.1957 1.63951 0
327 1 Si 106.191 35.3574 1.62637 0
328 1 Si 109.555 35.6994 1.63845 0
329 1 Si 121.053 34.6411 1.59985 0
330 1 Si 142.316 33.6326 1.6309 0
331 1 Si 139.485 35.2053 1.61385 0
332 1 Si 145.289 35.3066 1.65926 0
333 1 Si 155.514 36.1755 1.6019 0
334 1 Si 152.391 37.1114 1.62683 0
335 1 Si 160.528 37.7801 1.61666 0
336 1 Si 157.465 38.6718 1.6145 0
337 1 Si 168.75 34.4906 1.63757 0
338 1 Si 165.766 35.5339 1.63442 0
339 1 Si 174.244 35.5577 1.63732 0
340 1 Si 171.156 36.5533 1.61546 0
341 1 Si 189.297 35.6101 1.62717 0
342 1 Si 186.195 35.8962 1.62061 0
343 1 Si 194.836 34.9507 1.59378 0
344 1 Si 199.843 37.4703 1.6427 0
345 1 Si 0.163914 37.8411 1.63289 0
346 1 Si 104.404 38.335 1.63022 0
347 1 Si 101.087 38.6168 1.64127 0
348 1 Si 99.6718 35.6047 1.61761 0
349 1 Si 116.162 37.1016 1.64462 0
350 1 Si 110.93 38.8069 1.62379 0
351 1 Si 114.165 39.6995 1.6245 0
352 1 Si 119.426 37.3562 1.64082 0
353 1 Si 130.175 38.7096 1.61832 0
354 1 Si 135.101 37.7845 1.6218 0
355 1 Si 133.006 40.2807 1.63441 0
356 1 Si 145.571 38.7946 1.63012 0
357 1 Si 151.243 40.3044 1.6356 0
358 1 Si 148.033 41.1718 1.63273 0
359 1 Si 165.632 38.8901 1.6314 0
360 1 Si 162.703 40.121 1.63774 0
361 1 Si 175.886 38.2861 1.61004 0
362 1 Si 181.471 37.473 1.64331 0
363 1 Si 178.857 39.4844 1.63385 0
364 1 Si 191.357 38.0515 1.62751 0
365 1 Si 194.537 37.9939 1.62284 0
366 1 Si 5.30843 36.521 1.61783 0
367 1 Si 7.72312 31.0811 1.60663 0
368 1 Si 9.25119 33.7709 1.6262 0
369 1 Si 8.47193 36.7341 1.60224 0
370 1 Si 105.779 41.382 1.62744 0
371 1 Si 109.029 41.4504 1.61724 0
372 1 Si 124.913 38.7684 1.6145 0
373 1 Si 121.806 39.5387 1.6467 0
374 1 Si 127.535 40.4983 1.62812 0
375 1 Si 138.333 38.2417 1.63514 0
376 1 Si 143.145 40.9671 1.6134 0
377 1 Si 139.926 41.1324 1.6323 0
378 1 Si 156.499 41.6688 1.61603 0
379 1 Si 153.465 42.8197 1.61539 0
380 1 Si 170.745 39.7547 1.63 0
381 1 Si 167.917 41.3391 1.62799 0
382 1 Si 173.77 40.7028 1.62444 0
383 1 Si 184.612 38.6398 1.60399 0
384 1 Si 190.394 41.0391 1.63737 0
385 1 Si 187.015 40.9682 1.64175 0
386 1 Si 197.311 39.5982 1.62414 0
387 1 Si 1.93019 40.8737 1.61533 0
388 1 Si 4.92204 39.6797 1.62096 0
389 1 Si 104.878 44.6149 1.62928 0
390 1 Si 102.104 46.413 1.63662 0
391 1 Si 99.3451 41.5269 1.61507 0
392 1 Si 99.3275 44.8428 1.63287 0
393 1 Si 115.316 42.8671 1.62579 0
394 1 Si 121.463 42.7001 1.62952 0
395 1 Si 118.476 43.9447 1.61533 0
396 1 Si 127.2 43.6994 1.6305 0
397 1 Si 133.096 43.6435 1.62102 0
398 1 Si 130.093 45.2169 1.6319 0
399 1 Si 9.3168 6.01559 1.6331 0
400 1 Si 7.7112 3.08816 1.63494 0
401 1 Si 12.4414 7.36744 1.64496 0
402 1 Si 12.904 10.6333 1.62097 0
403 1 Si 10.1611 12.0992 1.59375 0
404 1 Si 15.3457 5.79764 1.63007 0
405 1 Si 15.2374 2.39034 1.63368 0
406 1 Si 9.34757 0.212263 1.63134 0
407 1 Si 12.7165 0.126669 1.61523 0
408 1 Si 18.1358 7.76173 1.63048 0
409 1 Si 19.2817 10.9606 1.62628 0
410 1 Si 13.768 13.7649 1.62746 0
411 1 Si 18.4244 14.3059 1.60993 0
412 1 Si 15.7575 16.2813 1.62101 0
413 1 Si 20.8142 5.92278 1.61034 0
414 1 Si 20.8638 2.75864 1.62564 0
415 1 Si 18.2052 0.998278 1.60953 0
416 1 Si 144.009 44.077 1.61817 0
417 1 Si 147.169 44.4924 1.62935 0
418 1 Si 23.6184 7.49792 1.61602 0
419 1 Si 22.5541 10.544 1.6246 0
420 1 Si 26.4677 5.9803 1.62129 0
421 1 Si 26.4739 2.69965 1.62475 0
422 1 Si 23.633 1.10635 1.6117 0
423 1 Si 29.4063 7.42059 1.61777 0
424 1 Si 29.9801 10.7505 1.64159 0
425 1 Si 24.5208 13.0759 1.63491 0
426 1 Si 27.7357 13.1381 1.62036 0
427 1 Si 31.0863 4.59453 1.62934 0
428 1 Si 29.5489 1.71157 1.6139 0
429 1 Si 161.994 43.3186 1.63112 0
430 1 Si 158.821 43.8571 1.61639 0
431 1 Si 38.6202 5.9971 1.59982 0
432 1 Si 35.7987 7.39353 1.60786 0
433 1 Si 41.2297 7.65763 1.61214 0
434 1 Si 40.9832 10.7943 1.64626 0
435 1 Si 35.6384 10.6455 1.63721 0
436 1 Si 38.3269 12.5078 1.62362 0
437 1 Si 38.7692 2.84973 1.6072 0
438 1 Si 34.2597 4.53033 1.63102 0
439 1 Si 35.7856 1.61374 1.62424 0
440 1 Si 43.654 5.64904 1.60284 0
441 1 Si 41.9888 2.90892 1.64749 0
442 1 Si 46.6281 6.79137 1.63884 0
443 1 Si 46.1713 10.0133 1.63095 0
444 1 Si 43.7822 12.1869 1.63525 0
445 1 Si 49.549 5.1816 1.63326 0
446 1 Si 49.813 1.77756 1.6412 0
447 1 Si 43.7065 0.280044 1.62999 0
448 1 Si 46.9164 0.0351459 1.61131 0
449 1 Si 51.9618 7.44045 1.62681 0
450 1 Si 51.3774 10.5961 1.61218 0
451 1 Si 48.572 11.9966 1.60409 0
452 1 Si 55.2086 7.80102 1.62958 0
453 1 Si 57.0224 5.11523 1.63144 0
454 1 Si 55.9183 1.85216 1.63455 0
455 1 Si 52.9003 0.255525 1.63772 0
456 1 Si 53.7437 12.763 1.61332 0
457 1 Si 56.3886 10.9441 1.63408 0
458 1 Si 62.0815 3.91611 1.63611 0
459 1 Si 60.0987 6.49509 1.62124 0
460 1 Si 61.4664 0.704919 1.60485 0
461 1 Si 58.4252 175.965 1.59641 0
462 1 Si 167.417 44.7219 1.63282 0
463 1 Si 164.178 45.8122 1.63392 0
464 1 Si 64.962 5.24468 1.60377 0
465 1 Si 66.3924 8.09932 1.6376 0
466 1 Si 61.5168 9.6342 1.61231 0
467 1 Si 64.7074 10.7559 1.63801 0
468 1 Si 67.3623 3.24894 1.62188 0
469 1 Si 67.5099 0.144769 1.60885 0
470 1 Si 62.8927 173.975 1.6376 0
471 1 Si 66.0054 173.607 1.63546 0
472 1 Si 69.9922 4.93457 1.61844 0
473 1 Si 69.555 8.03669 1.6317 0
474 1 Si 72.8834 3.81754 1.60252 0
475 1 Si 73.1296 0.670666 1.64053 0
476 1 Si 70.4512 175.394 1.61343 0
477 1 Si 73.615 6.93875 1.64707 0
478 1 Si 72.1681 9.82176 1.62418 0
479 1 Si 78.6869 3.99839 1.62735 0
480 1 Si 76.6006 6.25778 1.62784 0
481 1 Si 79.4131 1.01168 1.62228 0
482 1 Si 74.6472 174.093 1.64677 0
483 1 Si 77.6897 174.64 1.6241 0
484 1 Si 81.01 6.05978 1.59029 0
485 1 Si 78.8675 8.28478 1.58014 0
486 1 Si 84.0979 5.82738 1.64448 0
487 1 Si 84.8607 2.70612 1.63892 0
488 1 Si 82.5442 0.456599 1.61637 0
489 1 Si 90.3242 4.30742 1.61133 0
490 1 Si 87.9768 2.02807 1.63445 0
491 1 Si 90.677 7.55232 1.64013 0
492 1 Si 85.3726 8.74489 1.6465 0
493 1 Si 88.3859 9.88144 1.62797 0
494 1 Si 93.0233 2.52318 1.61411 0
495 1 Si 92.1228 175.695 1.61487 0
496 1 Si 88.9291 175.153 1.60803 0
497 1 Si 96.1081 3.5905 1.64601 0
498 1 Si 96.4299 6.8384 1.61476 0
499 1 Si 93.7344 8.62217 1.61479 0
500 1 Si 98.4996 1.33654 1.6228 0
501 1 Si 94.366 173.39 1.63509 0
502 1 Si 97.5259 174.383 1.62443 0
503 1 Si 196.632 42.7842 1.63966 0
504 1 Si 193.208 42.9133 1.61937 0
505 1 Si 109.977 44.5849 1.62259 0
506 1 Si 113.124 45.3832 1.62736 0
507 1 Si 124.054 44.732 1.6231 0
508 1 Si 107.444 46.669 1.62234 0
509 1 Si 32.8934 12.3143 1.63522 0
510 1 Si 139.054 44.3717 1.62192 0
511 1 Si 141.754 46.3538 1.63339 0
512 1 Si 153.795 46.1477 1.63806 0
513 1 Si 157.092 46.5632 1.6123 0
514 1 Si 183.32 45.4979 1.62534 0
515 1 Si 186.162 44.0013 1.62673 0
516 1 Si 2.03428 44.3784 1.63989 0
517 1 Si 79.9197 11.1064 1.65035 0
518 1 Si 83.0666 10.9106 1.63825 0
519 1 Si 119.563 47.0328 1.61749 0
520 1 Si 114.135 48.5166 1.61944 0
521 1 Si 117.306 49.2663 1.62915 0
522 1 Si 122.779 47.7632 1.63037 0
523 1 Si 94.4094 11.7301 1.61608 0
524 1 Si 88.9114 13.1826 1.63799 0
525 1 Si 92.093 14.0132 1.63125 0
526 1 Si 135.939 45.5199 1.64111 0
527 1 Si 129.794 48.4573 1.63483 0
528 1 Si 135.64 48.8143 1.61709 0
529 1 Si 132.633 49.8721 1.59488 0
530 1 Si 10.9472 15.0913 1.57619 0
531 1 Si 8.69729 17.1985 1.6382 0
532 1 Si 148.157 47.7664 1.62474 0
533 1 Si 142.709 49.605 1.62781 0
534 1 Si 146.004 50.4351 1.62398 0
535 1 Si 151.421 48.59 1.62364 0
536 1 Si 23.4075 16.0798 1.60006 0
537 1 Si 20.379 16.9827 1.61666 0
538 1 Si 28.2717 16.3572 1.6237 0
539 1 Si 25.7368 18.2705 1.62105 0
540 1 Si 162.557 48.8357 1.61962 0
541 1 Si 159.276 48.9296 1.62677 0
542 1 Si 33.3592 15.5336 1.61323 0
543 1 Si 31.0962 17.8073 1.61959 0
544 1 Si 38.6893 15.7579 1.61902 0
545 1 Si 35.9878 17.3969 1.6361 0
546 1 Si 163.44 52.1041 1.64616 0
547 1 Si 166.582 52.4604 1.64089 0
548 1 Si 43.9579 15.4457 1.61824 0
549 1 Si 41.3626 17.6338 1.61683 0
550 1 Si 47.1337 14.8408 1.63824 0
551 1 Si 184.271 48.4629 1.58973 0
552 1 Si 183.602 51.5235 1.62575 0
553 1 Si 49.5901 16.7696 1.63313 0
554 1 Si 52.7105 15.8539 1.63602 0
555 1 Si 192.006 45.8627 1.61309 0
556 1 Si 188.82 45.8325 1.6351 0
557 1 Si 59.453 12.2282 1.61896 0
558 1 Si 66.4813 13.6457 1.62969 0
559 1 Si 60.7923 15.3426 1.62108 0
560 1 Si 64.0422 15.7799 1.61347 0
561 1 Si 72.431 13.1004 1.63988 0
562 1 Si 69.6905 14.9204 1.63882 0
563 1 Si 4.95137 46.1715 1.61235 0
564 1 Si 7.68579 41.3171 1.63818 0
565 1 Si 7.61624 44.4113 1.61451 0
566 1 Si 78.148 13.6463 1.61515 0
567 1 Si 75.2355 14.8302 1.61797 0
568 1 Si 83.4856 13.9932 1.6283 0
569 1 Si 80.7012 15.4604 1.59863 0
570 1 Si 107.384 50.0496 1.62983 0
571 1 Si 104.544 51.5362 1.61396 0
572 1 Si 101.881 49.7068 1.61283 0
573 1 Si 112.721 51.4464 1.63127 0
574 1 Si 109.701 52.5111 1.62333 0
575 1 Si 86.3541 15.3591 1.61317 0
576 1 Si 124.28 50.8215 1.6385 0
577 1 Si 127.566 50.8322 1.6287 0
578 1 Si 137.31 51.676 1.62924 0
579 1 Si 140.537 52.1555 1.6436 0
580 1 Si 152.024 51.9199 1.61916 0
581 1 Si 157.912 51.767 1.60553 0
582 1 Si 155.015 52.9913 1.61793 0
583 1 Si 187.374 48.5409 1.6178 0
584 1 Si 93.2572 17.0641 1.63793 0
585 1 Si 96.5545 17.5909 1.61878 0
586 1 Si 9.35133 20.2835 1.6093 0
587 1 Si 117.899 52.4145 1.5998 0
588 1 Si 123.203 54.0776 1.63404 0
589 1 Si 120.007 54.8742 1.63688 0
590 1 Si 15.153 19.6535 1.63181 0
591 1 Si 12.3856 21.4469 1.63176 0
592 1 Si 20.3512 20.2902 1.65086 0
593 1 Si 17.6183 21.912 1.63633 0
594 1 Si 25.6671 21.4971 1.63606 0
595 1 Si 22.6874 22.6241 1.61123 0
596 1 Si 132.493 53.0406 1.60981 0
597 1 Si 135.386 54.3721 1.62331 0
598 1 Si 32.2569 20.8133 1.61131 0
599 1 Si 27.775 23.9886 1.61588 0
600 1 Si 30.9758 23.7681 1.63375 0
601 1 Si 129.353 53.5597 1.63485 0
602 1 Si 35.4732 20.5677 1.60247 0
603 1 Si 146.88 53.7847 1.65331 0
604 1 Si 150.137 54.7105 1.62228 0
605 1 Si 40.4641 20.9971 1.63652 0
606 1 Si 37.6281 23.0133 1.62112 0
607 1 Si 48.5623 19.7668 1.61283 0
608 1 Si 46.0728 21.7658 1.60525 0
609 1 Si 43.0742 22.8199 1.64137 0
610 1 Si 141.365 55.3527 1.6123 0
611 1 Si 144.523 56.2051 1.61849 0
612 1 Si 54.1236 18.7445 1.62885 0
613 1 Si 51.5966 20.6863 1.60959 0
614 1 Si 159.078 54.6789 1.60078 0
615 1 Si 162.129 55.2691 1.65103 0
616 1 Si 59.8386 18.5457 1.62207 0
617 1 Si 57.055 20.2487 1.63837 0
618 1 Si 64.9111 18.8467 1.62598 0
619 1 Si 62.3084 20.7094 1.61647 0
620 1 Si 169.871 55.5253 1.61482 0
621 1 Si 166.798 55.7447 1.62227 0
622 1 Si 188.644 51.3364 1.62683 0
623 1 Si 70.581 18.1879 1.62683 0
624 1 Si 67.911 19.9941 1.64876 0
625 1 Si 76.1307 17.9952 1.62071 0
626 1 Si 73.499 19.9503 1.63077 0
627 1 Si 5.73764 52.1435 1.63723 0
628 1 Si 6.67341 49.0263 1.63623 0
629 1 Si 79.4345 18.3643 1.60388 0
630 1 Si 104.078 54.772 1.61844 0
631 1 Si 100.785 55.033 1.63535 0
632 1 Si 99.442 51.8822 1.62408 0
633 1 Si 85.1923 18.5119 1.63989 0
634 1 Si 82.1529 20.1622 1.64197 0
635 1 Si 114.997 53.6947 1.59646 0
636 1 Si 91.0678 19.4907 1.6226 0
637 1 Si 87.8946 20.2322 1.62317 0
638 1 Si 128.45 56.614 1.62259 0
639 1 Si 125.186 56.7923 1.6098 0
640 1 Si 136.121 57.6093 1.63779 0
641 1 Si 139.422 58.0538 1.62881 0
642 1 Si 156.221 55.9194 1.61304 0
643 1 Si 151.586 57.908 1.63317 0
644 1 Si 154.898 58.7803 1.63422 0
645 1 Si 174.61 56.8863 1.60461 0
646 1 Si 171.704 58.0116 1.61635 0
647 1 Si 186.202 53.413 1.62812 0
648 1 Si 190.265 55.9364 1.6302 0
649 1 Si 187.097 56.4786 1.63894 0
650 1 Si 97.7959 20.6026 1.63701 0
651 1 Si 92.4084 22.3923 1.61519 0
652 1 Si 95.5578 22.8691 1.65174 0
653 1 Si 106.467 57.0722 1.64397 0
654 1 Si 109.543 55.8907 1.62632 0
655 1 Si 12.6002 24.7245 1.63019 0
656 1 Si 9.64034 26.026 1.6313 0
657 1 Si 115.229 56.8627 1.62505 0
658 1 Si 118.381 57.8157 1.63531 0
659 1 Si 18.1802 25.2633 1.61886 0
660 1 Si 15.3164 26.678 1.6216 0
661 1 Si 23.2822 25.8758 1.64108 0
662 1 Si 20.6462 27.7169 1.6361 0
663 1 Si 130.371 59.2776 1.61352 0
664 1 Si 133.684 59.9658 1.64322 0
665 1 Si 26.3969 26.9545 1.61234 0
666 1 Si 32.8922 26.4355 1.61503 0
667 1 Si 36.1932 26.2719 1.61124 0
668 1 Si 144.343 59.5311 1.62407 0
669 1 Si 149.997 60.7885 1.61544 0
670 1 Si 146.835 61.6289 1.62219 0
671 1 Si 46.5505 24.8866 1.60325 0
672 1 Si 43.5883 25.989 1.6149 0
673 1 Si 51.8973 23.7459 1.62838 0
674 1 Si 49.5056 25.7691 1.62381 0
675 1 Si 162.501 58.6312 1.60248 0
676 1 Si 165.722 58.8093 1.61696 0
677 1 Si 57.3413 23.5879 1.61889 0
678 1 Si 54.6279 25.2106 1.62872 0
679 1 Si 179.935 57.5246 1.61663 0
680 1 Si 177.001 58.9107 1.61624 0
681 1 Si 62.5093 23.9748 1.64508 0
682 1 Si 59.7976 25.8363 1.61832 0
683 1 Si 195.059 57.4878 1.62326 0
684 1 Si 192.086 58.3845 1.62706 0
685 1 Si 68.0863 23.1744 1.6263 0
686 1 Si 65.527 25.1413 1.61721 0
687 1 Si 199.902 58.8235 1.63114 0
688 1 Si 196.905 59.9524 1.61986 0
689 1 Si 73.6407 23.3155 1.61982 0
690 1 Si 70.7754 24.8426 1.62076 0
691 1 Si 3.85936 57.9337 1.63327 0
692 1 Si 8.14872 54.6165 1.61812 0
693 1 Si 7.19865 57.8633 1.64084 0
694 1 Si 106.305 60.358 1.63458 0
695 1 Si 103.891 62.561 1.62743 0
696 1 Si 99.4863 58.1776 1.62402 0
697 1 Si 100.74 61.358 1.62566 0
698 1 Si 81.5547 23.4558 1.61708 0
699 1 Si 75.8942 25.7108 1.64281 0
700 1 Si 79.1007 25.7386 1.63887 0
701 1 Si 112.182 57.9999 1.63621 0
702 1 Si 87.2879 23.3934 1.61672 0
703 1 Si 84.4625 24.884 1.63035 0
704 1 Si 90.1855 24.7033 1.62191 0
705 1 Si 125.006 60.0587 1.62918 0
706 1 Si 119.373 61.072 1.62534 0
707 1 Si 122.501 62.1301 1.61714 0
708 1 Si 127.959 61.4788 1.61253 0
709 1 Si 141.263 60.8015 1.62021 0
710 1 Si 134.32 63.2493 1.62005 0
711 1 Si 140.518 64.133 1.63566 0
712 1 Si 137.155 65.0611 1.63331 0
713 1 Si 157.054 61.4576 1.63402 0
714 1 Si 151.664 63.6038 1.60631 0
715 1 Si 154.922 64.0638 1.63649 0
716 1 Si 31.5277 29.4023 1.61798 0
717 1 Si 28.1784 29.8101 1.63701 0
718 1 Si 160.702 61.5108 1.63222 0
719 1 Si 36.6682 29.694 1.63239 0
720 1 Si 42.6611 29.128 1.63509 0
721 1 Si 39.7893 30.8979 1.63335 0
722 1 Si 170.722 60.9821 1.61838 0
723 1 Si 167.537 61.5377 1.61763 0
724 1 Si 66.7358 28.144 1.62906 0
725 1 Si 69.962 27.9575 1.63287 0
726 1 Si 185.821 59.5264 1.63344 0
727 1 Si 182.48 59.886 1.62894 0
728 1 Si 96.5656 25.8507 1.62475 0
729 1 Si 91.1785 27.7035 1.6402 0
730 1 Si 94.3422 28.0876 1.64537 0
731 1 Si 176.179 62.0317 1.64762 0
732 1 Si 173.1 63.1179 1.62549 0
733 1 Si 191.202 61.3912 1.5992 0
734 1 Si 188.026 62.1196 1.63277 0
735 1 Si 202.18 60.9328 1.62246 0
736 1 Si 2.50281 60.8585 1.62761 0
737 1 Si 10.1723 29.113 1.62232 0
738 1 Si 112.116 61.2454 1.61671 0
739 1 Si 109.004 62.1122 1.60606 0
740 1 Si 15.8535 29.963 1.62629 0
741 1 Si 12.8438 30.777 1.64052 0
742 1 Si 21.0389 31.2194 1.62264 0
743 1 Si 18.0259 32.5169 1.6328 0
744 1 Si 114.254 63.7696 1.6265 0
745 1 Si 117.651 63.9501 1.62847 0
746 1 Si 33.8412 31.7504 1.61694 0
747 1 Si 128.422 64.7075 1.63157 0
748 1 Si 131.663 65.2702 1.62887 0
749 1 Si 50.6532 28.6779 1.62842 0
750 1 Si 45.2146 31.1485 1.61797 0
751 1 Si 48.5498 31.081 1.61884 0
752 1 Si 53.8422 28.2948 1.61222 0
753 1 Si 146.404 64.8962 1.62122 0
754 1 Si 149.518 66.0761 1.63149 0
755 1 Si 59.3403 29.2544 1.64114 0
756 1 Si 56.1602 30.4677 1.61579 0
757 1 Si 61.9151 31.4897 1.62262 0
758 1 Si 65.2018 30.9869 1.63279 0
759 1 Si 163.103 64.1057 1.62128 0
760 1 Si 166.53 64.6699 1.62829 0
761 1 Si 181.824 63.2128 1.63202 0
762 1 Si 178.656 64.0846 1.65321 0
763 1 Si 72.1985 30.2452 1.61204 0
764 1 Si 75.0393 28.85 1.60031 0
765 1 Si 194.382 61.982 1.64873 0
766 1 Si 84.3379 28.0129 1.60774 0
767 1 Si 79.1301 29.0167 1.64817 0
768 1 Si 82.0078 30.0788 1.60182 0
769 1 Si 108.831 65.2755 1.60251 0
770 1 Si 105.521 65.5276 1.63399 0
771 1 Si 89.4056 30.3518 1.60576 0
772 1 Si 86.2813 30.4607 1.61638 0
773 1 Si 112.027 66.2278 1.63385 0
774 1 Si 200.801 63.6804 1.62539 0
775 1 Si 194.978 65.0312 1.62741 0
776 1 Si 198.1 65.1791 1.59585 0
777 1 Si 122.849 65.4466 1.62861 0
778 1 Si 125.889 66.9681 1.6233 0
779 1 Si 143.306 66.2215 1.63174 0
780 1 Si 23.4756 33.7331 1.63277 0
781 1 Si 26.8319 32.9187 1.63425 0
782 1 Si 40.3266 34.1764 1.62105 0
783 1 Si 43.5882 33.9416 1.61268 0
784 1 Si 155.891 67.1938 1.64297 0
785 1 Si 162.174 67.1619 1.63835 0
786 1 Si 159.012 67.8071 1.62144 0
787 1 Si 168.959 67.3441 1.62123 0
788 1 Si 172.05 66.2015 1.61414 0
789 1 Si 54.1295 33.1147 1.63742 0
790 1 Si 61.7639 34.8057 1.63109 0
791 1 Si 55.8071 35.8363 1.61695 0
792 1 Si 58.9989 36.5805 1.63346 0
793 1 Si 184.044 65.756 1.61617 0
794 1 Si 187.386 65.3916 1.61783 0
795 1 Si 67.001 33.7231 1.59863 0
796 1 Si 72.7308 33.4764 1.63461 0
797 1 Si 69.958 35.1811 1.63839 0
798 1 Si 76.9584 31.3858 1.60745 0
799 1 Si 0.393598 65.6237 1.60703 0
800 1 Si 3.09813 64.0022 1.64121 0
801 1 Si 95.9162 30.8209 1.62919 0
802 1 Si 90.6101 33.3041 1.59974 0
803 1 Si 94.0224 33.4425 1.63514 0
804 1 Si 119.76 66.6826 1.62732 0
805 1 Si 132.502 68.3455 1.62524 0
806 1 Si 126.636 70.3562 1.63111 0
807 1 Si 130.104 70.7199 1.63284 0
808 1 Si 135.827 68.112 1.62219 0
809 1 Si 12.3702 33.8047 1.61662 0
810 1 Si 17.3591 35.8814 1.63947 0
811 1 Si 14.1581 36.3691 1.61452 0
812 1 Si 150.958 69.0456 1.61581 0
813 1 Si 143.4 69.6018 1.64621 0
814 1 Si 146.301 71.2811 1.61324 0
815 1 Si 149.555 71.909 1.63004 0
816 1 Si 154.086 69.9596 1.62051 0
817 1 Si 22.5505 37.107 1.61987 0
818 1 Si 19.4135 38.5823 1.62471 0
819 1 Si 32.443 34.99 1.61636 0
820 1 Si 29.1278 35.3535 1.61625 0
821 1 Si 164.597 69.4413 1.58327 0
822 1 Si 169.452 70.8903 1.63191 0
823 1 Si 166.542 72.2088 1.64234 0
824 1 Si 177.574 67.1044 1.61801 0
825 1 Si 174.513 68.218 1.63841 0
826 1 Si 38.8175 37.2097 1.60941 0
827 1 Si 33.2199 38.3206 1.63525 0
828 1 Si 36.3183 39.5151 1.63989 0
829 1 Si 50.7873 33.4887 1.61505 0
830 1 Si 45.719 36.2821 1.64543 0
831 1 Si 48.9395 36.1272 1.61567 0
832 1 Si 182.986 68.9249 1.62702 0
833 1 Si 179.731 69.4819 1.62502 0
834 1 Si 193.102 67.6284 1.6235 0
835 1 Si 189.74 67.9518 1.63397 0
836 1 Si 64.804 36.0723 1.60683 0
837 1 Si 198.848 68.2184 1.59897 0
838 1 Si 195.878 69.369 1.63895 0
839 1 Si 75.9151 34.5033 1.63394 0
840 1 Si 202.003 68.4733 1.63034 0
841 1 Si 113.08 69.3045 1.624 0
842 1 Si 111.56 72.1233 1.60355 0
843 1 Si 105.915 71.5125 1.60664 0
844 1 Si 104.254 68.5551 1.63725 0
845 1 Si 108.646 73.5164 1.63269 0
846 1 Si 83.8975 32.5044 1.61278 0
847 1 Si 84.0679 35.6096 1.64372 0
848 1 Si 87.4476 34.7322 1.62602 0
849 1 Si 115.862 70.911 1.61752 0
850 1 Si 114.328 73.7552 1.6071 0
851 1 Si 96.3709 35.7479 1.61979 0
852 1 Si 119.018 70.0697 1.64717 0
853 1 Si 120.867 72.9011 1.60863 0
854 1 Si 124.186 73.0186 1.61193 0
855 1 Si 24.9228 39.3982 1.65442 0
856 1 Si 28.103 38.4614 1.62101 0
857 1 Si 137.46 70.888 1.65284 0
858 1 Si 140.699 71.5714 1.62839 0
859 1 Si 41.1183 39.4056 1.6175 0
860 1 Si 44.2596 39.0617 1.62013 0