ITEM: TIMESTEP
907
ITEM: NUMBER OF ATOMS
15408
ITEM: BOX BOUNDS pp pp pp
0.0000000000000000e+00 2.0351137978487347e+02
0.0000000000000000e+00 1.7621868277947354e+02
-1.0000000000000000e+02 1.0000000000000000e+02
ITEM: ATOMS id type element x y z v_uncoordination
1 1 Si 197.203 38.518 1.62433 0
2 1 Si 197.973 35.4095 1.63399 0
3 1 Si 194.268 39.8508 1.62238 0
4 1 Si 194.915 33.968 1.62512 0
5 1 Si 191.775 35.2641 1.6255 0
6 1 Si 191.351 38.4629 1.63932 0
7 1 Si 199.474 40.7129 1.63435 0
8 1 Si 201.342 34.5338 1.64063 0
9 1 Si 0.162077 37.2568 1.61282 0
10 1 Si 202.611 40.3027 1.60827 0
11 1 Si 194.751 42.992 1.61178 0
12 1 Si 198.001 43.5193 1.62734 0
13 1 Si 107.106 3.79087 1.63066 0
14 1 Si 104.611 5.68862 1.62409 0
15 1 Si 109.962 5.24381 1.61343 0
16 1 Si 109.023 8.38897 1.6238 0
17 1 Si 105.702 8.66286 1.58623 0
18 1 Si 106.399 0.703617 1.6478 0
19 1 Si 101.543 4.7174 1.62796 0
20 1 Si 100.583 1.66309 1.6223 0
21 1 Si 103.281 176.079 1.62705 0
22 1 Si 112.647 3.35047 1.63942 0
23 1 Si 111.97 0.0777214 1.63901 0
24 1 Si 108.931 174.917 1.64315 0
25 1 Si 115.83 4.45077 1.60582 0
26 1 Si 116.992 7.57832 1.61149 0
27 1 Si 111.388 10.637 1.60957 0
28 1 Si 114.832 10.2808 1.61657 0
29 1 Si 118.444 2.30473 1.62226 0
30 1 Si 117.719 175.202 1.6059 0
31 1 Si 114.544 174.311 1.62855 0
32 1 Si 121.483 3.82164 1.61972 0
33 1 Si 120.416 7.14867 1.60975 0
34 1 Si 124.787 2.07563 1.6514 0
35 1 Si 124.808 174.549 1.61639 0
36 1 Si 119.101 172.117 1.61544 0
37 1 Si 122.448 171.857 1.61087 0
38 1 Si 128.025 4.03155 1.63277 0
39 1 Si 127.909 7.39405 1.62906 0
40 1 Si 125.636 9.63715 1.61467 0
41 1 Si 122.436 9.81747 1.62624 0
42 1 Si 131.496 3.20006 1.60855 0
43 1 Si 134.019 5.746 1.61353 0
44 1 Si 130.352 9.50884 1.61783 0
45 1 Si 133.46 9.0238 1.64381 0
46 1 Si 132.398 176.165 1.64856 0
47 1 Si 127.616 172.742 1.61348 0
48 1 Si 130.839 173.324 1.63294 0
49 1 Si 138.612 2.66235 1.60703 0
50 1 Si 137.281 5.54979 1.62605 0
51 1 Si 138.275 175.804 1.62871 0
52 1 Si 135.325 174.887 1.60859 0
53 1 Si 141.676 2.97996 1.63171 0
54 1 Si 142.326 5.98563 1.63838 0
55 1 Si 139.744 7.73707 1.62177 0
56 1 Si 144.122 1.09702 1.6248 0
57 1 Si 143.763 174.19 1.65546 0
58 1 Si 140.609 173.595 1.62052 0
59 1 Si 146.31 3.37311 1.62437 0
60 1 Si 145.383 6.42913 1.62833 0
61 1 Si 149.35 2.79006 1.59967 0
62 1 Si 150.6 175.984 1.61381 0
63 1 Si 154.014 3.89221 1.62799 0
64 1 Si 153.706 0.607157 1.61308 0
65 1 Si 151.182 5.52276 1.60961 0
66 1 Si 146.346 172.25 1.61647 0
67 1 Si 149.535 172.881 1.60979 0
68 1 Si 159.495 3.02937 1.63686 0
69 1 Si 157.028 5.14549 1.64616 0
70 1 Si 162.658 3.56941 1.61761 0
71 1 Si 163.612 6.64176 1.62058 0
72 1 Si 157.78 8.34109 1.63858 0
73 1 Si 161.087 8.85108 1.63255 0
74 1 Si 159.164 176.072 1.62862 0
75 1 Si 156.233 174.756 1.64936 0
76 1 Si 164.136 0.665936 1.61669 0
77 1 Si 161.976 174.466 1.61822 0
78 1 Si 168.219 3.90968 1.61319 0
79 1 Si 167.321 0.449309 1.61789 0
80 1 Si 166.894 7.16153 1.6112 0
81 1 Si 172.738 0.663796 1.60598 0
82 1 Si 171.296 3.49456 1.60142 0
83 1 Si 171.975 173.765 1.63802 0
84 1 Si 168.691 173.426 1.61497 0
85 1 Si 175.602 2.02451 1.62997 0
86 1 Si 174.054 4.87602 1.61183 0
87 1 Si 178.589 0.393163 1.60367 0
88 1 Si 180.755 5.63081 1.64678 0
89 1 Si 181.168 2.4825 1.60362 0
90 1 Si 174.894 7.86059 1.61147 0
91 1 Si 178.055 7.29468 1.62709 0
92 1 Si 177.623 170.898 1.616 0
93 1 Si 174.29 171.378 1.61081 0
94 1 Si 179.839 173.285 1.61721 0
95 1 Si 187.189 3.57695 1.60838 0
96 1 Si 190.176 1.93751 1.60311 0
97 1 Si 186.466 6.82286 1.63506 0
98 1 Si 192.91 6.29225 1.59794 0
99 1 Si 193.025 3.15884 1.62552 0
100 1 Si 188.384 9.51767 1.61599 0
101 1 Si 191.633 9.17964 1.6302 0
102 1 Si 184.4 1.69387 1.61524 0
103 1 Si 188.156 174.002 1.60137 0
104 1 Si 185.089 174.794 1.63406 0
105 1 Si 191.16 175.04 1.60978 0
106 1 Si 183.326 7.49746 1.65063 0
107 1 Si 195.989 5.81431 1.62463 0
108 1 Si 196.119 2.67865 1.609 0
109 1 Si 201.57 3.45708 1.61681 0
110 1 Si 1.02136 2.01766 1.64778 0
111 1 Si 201.215 6.80598 1.6362 0
112 1 Si 3.5712 4.09943 1.62413 0
113 1 Si 0.0371806 9.14829 1.65137 0
114 1 Si 3.09548 7.71849 1.6536 0
115 1 Si 198.986 1.30103 1.61686 0
116 1 Si 1.29975 174.892 1.62701 0
117 1 Si 202.208 172.999 1.61955 0
118 1 Si 199.148 174.214 1.61821 0
119 1 Si 198.203 8.0192 1.63899 0
120 1 Si 5.88011 1.41558 1.62242 0
121 1 Si 3.62966 172.502 1.61423 0
122 1 Si 6.46227 173.997 1.62379 0
123 1 Si 102.441 9.37031 1.6149 0
124 1 Si 99.689 7.27144 1.619 0
125 1 Si 126.888 12.6217 1.61547 0
126 1 Si 121.934 13.1453 1.61063 0
127 1 Si 124.758 14.9015 1.60972 0
128 1 Si 129.986 12.6993 1.61368 0
129 1 Si 140.814 10.809 1.62494 0
130 1 Si 134.911 12.0081 1.62722 0
131 1 Si 138.141 12.7531 1.64145 0
132 1 Si 146.721 9.32656 1.6234 0
133 1 Si 144.2 11.6443 1.63244 0
134 1 Si 150.08 8.7503 1.62101 0
135 1 Si 155.518 10.861 1.61291 0
136 1 Si 152.181 11.3081 1.62086 0
137 1 Si 173.562 10.8477 1.61733 0
138 1 Si 167.632 10.5788 1.63016 0
139 1 Si 170.567 12.3369 1.6317 0
140 1 Si 178.876 10.2491 1.62134 0
141 1 Si 176.462 12.2723 1.61375 0
142 1 Si 182.005 10.3466 1.64417 0
143 1 Si 187.068 12.5965 1.62883 0
144 1 Si 183.748 12.9439 1.63158 0
145 1 Si 197.109 11.0827 1.6457 0
146 1 Si 193.823 11.6447 1.63948 0
147 1 Si 202.703 12.4843 1.64862 0
148 1 Si 199.438 13.4118 1.64838 0
149 1 Si 5.34982 10.3248 1.62555 0
150 1 Si 8.51312 9.28247 1.63877 0
151 1 Si 9.46575 6.10645 1.62404 0
152 1 Si 8.65379 2.91213 1.61269 0
153 1 Si 110.383 13.7782 1.60728 0
154 1 Si 107.575 15.5874 1.64736 0
155 1 Si 104.365 14.87 1.61438 0
156 1 Si 102.096 12.496 1.61067 0
157 1 Si 116.047 13.3797 1.62135 0
158 1 Si 113.338 15.2146 1.62655 0
159 1 Si 119.088 14.8956 1.62684 0
160 1 Si 132.664 14.42 1.61115 0
161 1 Si 161.858 11.9824 1.62852 0
162 1 Si 156.509 13.9912 1.62421 0
163 1 Si 159.741 14.4869 1.61041 0
164 1 Si 165.011 12.6947 1.63216 0
165 1 Si 192.532 14.6841 1.62968 0
166 1 Si 189.162 15.2077 1.63523 0
167 1 Si 4.77386 13.8293 1.64065 0
168 1 Si 1.50235 14.9687 1.63289 0
169 1 Si 125.389 18.1011 1.61155 0
170 1 Si 119.366 18.3239 1.62386 0
171 1 Si 122.457 19.7264 1.61908 0
172 1 Si 133.634 17.5766 1.61955 0
173 1 Si 128.221 19.9963 1.6176 0
174 1 Si 131.752 20.2835 1.61913 0
175 1 Si 145.032 14.8885 1.63755 0
176 1 Si 139.161 15.8004 1.63812 0
177 1 Si 142.288 16.7201 1.63899 0
178 1 Si 151.099 14.5606 1.6126 0
179 1 Si 148.096 16.4146 1.62385 0
180 1 Si 153.994 16.1635 1.61877 0
181 1 Si 178.056 15.0165 1.62628 0
182 1 Si 170.277 15.7132 1.59708 0
183 1 Si 171.205 18.8615 1.62366 0
184 1 Si 176.606 17.8637 1.58745 0
185 1 Si 174.173 20.0396 1.61111 0
186 1 Si 181.381 15.1827 1.61694 0
187 1 Si 194.802 17.1274 1.64692 0
188 1 Si 198.171 16.5161 1.64455 0
189 1 Si 7.45274 16.1805 1.62552 0
190 1 Si 10.8783 11.5963 1.62583 0
191 1 Si 10.4881 14.7915 1.62193 0
192 1 Si 113.687 18.4321 1.62166 0
193 1 Si 107.999 18.8203 1.62811 0
194 1 Si 110.923 20.0419 1.63824 0
195 1 Si 116.52 20.1667 1.62911 0
196 1 Si 136.941 18.1271 1.61678 0
197 1 Si 161.702 17.0752 1.61005 0
198 1 Si 154.105 19.5094 1.63109 0
199 1 Si 157.3 20.7984 1.61264 0
200 1 Si 160.656 20.1319 1.62086 0
201 1 Si 164.776 15.937 1.60876 0
202 1 Si 167.551 17.4034 1.60685 0
203 1 Si 187.938 18.3296 1.62519 0
204 1 Si 182.107 18.2431 1.62607 0
205 1 Si 184.918 19.6948 1.61833 0
206 1 Si 193.412 20.1844 1.65075 0
207 1 Si 190.049 20.7812 1.61064 0
208 1 Si 0.272221 18.2416 1.63171 0
209 1 Si 200.421 18.9805 1.63892 0
210 1 Si 2.11654 21.0837 1.61522 0
211 1 Si 5.36314 21.8528 1.62205 0
212 1 Si 7.96756 19.6574 1.61674 0
213 1 Si 105.88 21.2611 1.62777 0
214 1 Si 102.747 20.5888 1.62433 0
215 1 Si 102.314 17.3651 1.62684 0
216 1 Si 123.353 22.883 1.62967 0
217 1 Si 126.68 22.8627 1.61559 0
218 1 Si 142.163 19.9314 1.6396 0
219 1 Si 138.958 20.6841 1.62963 0
220 1 Si 147.964 19.9613 1.62618 0
221 1 Si 144.856 21.8563 1.65176 0
222 1 Si 151.124 21.4097 1.62515 0
223 1 Si 168.41 20.4904 1.60255 0
224 1 Si 179.242 19.6377 1.60789 0
225 1 Si 195.747 22.5353 1.62165 0
226 1 Si 199.048 22.0784 1.64346 0
227 1 Si 110.644 23.1707 1.62035 0
228 1 Si 107.565 23.9902 1.62276 0
229 1 Si 116.119 23.5056 1.63634 0
230 1 Si 113.209 24.944 1.61157 0
231 1 Si 121.491 25.7085 1.63924 0
232 1 Si 118.111 26.0912 1.61999 0
233 1 Si 133.991 23.1067 1.6191 0
234 1 Si 128.573 25.4849 1.62326 0
235 1 Si 131.939 25.685 1.62162 0
236 1 Si 137.604 23.6056 1.64764 0
237 1 Si 157.521 24.006 1.61847 0
238 1 Si 151.553 24.7697 1.61815 0
239 1 Si 154.742 25.7029 1.61518 0
240 1 Si 163.012 22.5761 1.61619 0
241 1 Si 160.698 24.8786 1.61641 0
242 1 Si 166.481 23.2094 1.62756 0
243 1 Si 178.563 22.6973 1.61933 0
244 1 Si 175.295 23.2529 1.60394 0
245 1 Si 184.387 22.9142 1.60187 0
246 1 Si 181.358 24.4374 1.64984 0
247 1 Si 187.68 23.1522 1.61231 0
248 1 Si 194.856 25.6196 1.63183 0
249 1 Si 188.618 26.0982 1.62169 0
250 1 Si 191.8 26.4331 1.60869 0
251 1 Si 200.974 24.834 1.62851 0
252 1 Si 0.658993 24.1027 1.63255 0
253 1 Si 123.405 28.4161 1.60933 0
254 1 Si 126.602 28.0776 1.61475 0
255 1 Si 143.781 25.2621 1.63448 0
256 1 Si 140.246 25.9842 1.63915 0
257 1 Si 146.085 27.9984 1.63103 0
258 1 Si 149.586 27.5197 1.62692 0
259 1 Si 167.687 26.5122 1.61965 0
260 1 Si 174.443 26.6435 1.63293 0
261 1 Si 171.072 28.0873 1.62243 0
262 1 Si 200.073 28.1668 1.61462 0
263 1 Si 196.795 28.2739 1.62561 0
264 1 Si 2.59495 26.7592 1.62437 0
265 1 Si 5.48346 25.2333 1.60294 0
266 1 Si 106.904 27.1273 1.61588 0
267 1 Si 103.611 27.8086 1.60944 0
268 1 Si 100.264 22.8192 1.62973 0
269 1 Si 100.734 26.0921 1.6342 0
270 1 Si 109.544 29.3582 1.61574 0
271 1 Si 108.528 32.6712 1.62064 0
272 1 Si 105.033 33.3842 1.61779 0
273 1 Si 102.643 30.9673 1.6228 0
274 1 Si 112.744 28.1512 1.61132 0
275 1 Si 116.003 28.7762 1.61567 0
276 1 Si 117.154 31.7679 1.60435 0
277 1 Si 123.033 31.7068 1.62012 0
278 1 Si 120.123 32.9109 1.60355 0
279 1 Si 191.856 53.5002 1.62433 0
280 1 Si 191.697 50.4921 1.60608 0
281 1 Si 189.474 55.4803 1.60851 0
282 1 Si 189.219 48.6792 1.60195 0
283 1 Si 186.262 49.744 1.60829 0
284 1 Si 184.636 52.5991 1.61261 0
285 1 Si 186.217 55.4392 1.6271 0
286 1 Si 194.775 54.6217 1.6216 0
287 1 Si 194.202 48.6768 1.59141 0
288 1 Si 196.955 49.9369 1.62182 0
289 1 Si 197.373 53.0293 1.61922 0
290 1 Si 194.965 57.6749 1.6309 0
291 1 Si 191.794 57.6711 1.61542 0
292 1 Si 133.045 28.7336 1.61741 0
293 1 Si 127.697 31.0827 1.6107 0
294 1 Si 130.832 31.1447 1.61347 0
295 1 Si 139.221 29.2481 1.63458 0
296 1 Si 135.981 30.1098 1.62613 0
297 1 Si 161.503 27.9628 1.62978 0
298 1 Si 155.151 28.88 1.61055 0
299 1 Si 158.477 29.62 1.62153 0
300 1 Si 164.898 28.6045 1.64162 0
301 1 Si 180.654 27.6651 1.63011 0
302 1 Si 177.345 28.724 1.62938 0
303 1 Si 186.562 28.6047 1.62155 0
304 1 Si 183.404 29.588 1.64038 0
305 1 Si 191.907 29.5298 1.61984 0
306 1 Si 188.995 30.6522 1.6334 0
307 1 Si 1.92809 30.1395 1.63495 0
308 1 Si 202.162 31.0343 1.62503 0
309 1 Si 116.495 34.8689 1.61343 0
310 1 Si 110.649 35.4344 1.60851 0
311 1 Si 113.846 36.6071 1.6107 0
312 1 Si 125.721 33.651 1.60167 0
313 1 Si 144.702 31.3172 1.62262 0
314 1 Si 141.394 31.8924 1.64313 0
315 1 Si 151.958 29.9117 1.62074 0
316 1 Si 151.446 33.1035 1.62211 0
317 1 Si 145.875 34.5788 1.61848 0
318 1 Si 148.937 35.0699 1.61597 0
319 1 Si 171.064 31.6317 1.63357 0
320 1 Si 165.234 31.8848 1.65315 0
321 1 Si 168.171 33.5095 1.63633 0
322 1 Si 177.022 32.1115 1.64908 0
323 1 Si 173.924 33.5488 1.65156 0
324 1 Si 194.805 30.7866 1.62612 0
325 1 Si 4.40487 32.5355 1.62341 0
326 1 Si 7.16201 30.924 1.62749 0
327 1 Si 7.65488 27.6547 1.63421 0
328 1 Si 119.538 36.0454 1.61183 0
329 1 Si 135.043 33.2367 1.63142 0
330 1 Si 131.931 34.1218 1.61621 0
331 1 Si 140.378 35.2139 1.61825 0
332 1 Si 137.126 35.6392 1.64021 0
333 1 Si 159.163 32.697 1.614 0
334 1 Si 156.92 35.0377 1.6048 0
335 1 Si 153.705 35.4022 1.62417 0
336 1 Si 162.356 33.5373 1.61767 0
337 1 Si 182.967 32.8553 1.64215 0
338 1 Si 179.831 34.0253 1.64862 0
339 1 Si 188.814 33.7838 1.6338 0
340 1 Si 185.686 34.798 1.64353 0
341 1 Si 5.41208 35.8443 1.61603 0
342 1 Si 3.42398 38.4 1.61403 0
343 1 Si 103.759 36.5986 1.62429 0
344 1 Si 100.545 37.644 1.62332 0
345 1 Si 99.2095 31.085 1.61727 0
346 1 Si 96.5579 33.2448 1.62636 0
347 1 Si 97.465 36.3825 1.62227 0
348 1 Si 109.218 38.4065 1.62485 0
349 1 Si 105.977 39.1533 1.63283 0
350 1 Si 114.532 39.9402 1.60853 0
351 1 Si 111.419 40.8529 1.62572 0
352 1 Si 127.004 36.7971 1.62061 0
353 1 Si 121.546 38.7679 1.61334 0
354 1 Si 124.988 39.4209 1.62198 0
355 1 Si 130.37 37.0212 1.62325 0
356 1 Si 141.999 38.3053 1.61483 0
357 1 Si 145.189 38.0189 1.61073 0
358 1 Si 162.218 36.7862 1.63653 0
359 1 Si 158.971 37.556 1.61674 0
360 1 Si 168.022 36.9665 1.63226 0
361 1 Si 165.052 38.6828 1.63626 0
362 1 Si 173.756 36.9683 1.64734 0
363 1 Si 170.882 38.8071 1.63946 0
364 1 Si 179.622 37.3335 1.64727 0
365 1 Si 176.604 38.7212 1.65057 0
366 1 Si 9.32424 33.3016 1.61716 0
367 1 Si 8.64953 36.4759 1.60997 0
368 1 Si 120.195 41.7253 1.60679 0
369 1 Si 116.866 42.4972 1.63993 0
370 1 Si 135.677 38.5308 1.63141 0
371 1 Si 132.554 39.4697 1.61834 0
372 1 Si 137.518 41.0778 1.6027 0
373 1 Si 140.71 41.4379 1.60993 0
374 1 Si 152.447 38.391 1.61415 0
375 1 Si 149.32 38.3074 1.63163 0
376 1 Si 157.504 40.4518 1.61272 0
377 1 Si 154.25 41.0094 1.61745 0
378 1 Si 185.47 38.03 1.64361 0
379 1 Si 182.385 39.2041 1.64546 0
380 1 Si 188.305 39.7629 1.6341 0
381 1 Si 13.432 2.49967 1.61916 0
382 1 Si 16.3828 1.1963 1.63045 0
383 1 Si 12.6102 5.59402 1.62743 0
384 1 Si 18.4129 3.56521 1.60552 0
385 1 Si 14.7925 7.93708 1.6309 0
386 1 Si 17.616 6.61498 1.59769 0
387 1 Si 10.9461 0.58629 1.62196 0
388 1 Si 16.9779 174.256 1.59968 0
389 1 Si 14.4055 172.403 1.62139 0
390 1 Si 11.4636 173.612 1.62771 0
391 1 Si 24.2282 2.72339 1.61891 0
392 1 Si 24.1774 175.712 1.60654 0
393 1 Si 21.4548 4.31107 1.61385 0
394 1 Si 19.2596 171.964 1.62215 0
395 1 Si 22.2029 173.119 1.62033 0
396 1 Si 27.1164 4.44829 1.61585 0
397 1 Si 29.9615 2.69508 1.63027 0
398 1 Si 27.1027 7.82751 1.62541 0
399 1 Si 32.8899 3.89369 1.6233 0
400 1 Si 32.6747 7.20426 1.64011 0
401 1 Si 30.0411 9.26616 1.61523 0
402 1 Si 30.4491 175.742 1.63294 0
403 1 Si 27.3423 175.011 1.61255 0
404 1 Si 20.6223 7.41816 1.61023 0
405 1 Si 24.8088 10.3026 1.60854 0
406 1 Si 21.4856 10.5076 1.61899 0
407 1 Si 105.12 42.4521 1.64086 0
408 1 Si 101.927 43.3697 1.64945 0
409 1 Si 99.9056 40.8441 1.63598 0
410 1 Si 107.46 44.8308 1.61035 0
411 1 Si 110.58 43.9857 1.61729 0
412 1 Si 35.3998 1.72029 1.62497 0
413 1 Si 36.1254 174.749 1.61572 0
414 1 Si 33.0927 173.771 1.63494 0
415 1 Si 38.2585 2.92053 1.61784 0
416 1 Si 37.9737 6.01748 1.61725 0
417 1 Si 35.6826 8.20906 1.62905 0
418 1 Si 126.593 42.5371 1.60113 0
419 1 Si 123.286 42.9545 1.58747 0
420 1 Si 41.2779 1.86799 1.62325 0
421 1 Si 42.9781 4.55107 1.62949 0
422 1 Si 40.9191 6.96388 1.61084 0
423 1 Si 42.0396 174.978 1.61472 0
424 1 Si 39.1461 173.281 1.61411 0
425 1 Si 46.0148 5.33101 1.63662 0
426 1 Si 45.1489 8.68862 1.61428 0
427 1 Si 39.9768 10.0239 1.61387 0
428 1 Si 42.7893 11.3356 1.62303 0
429 1 Si 48.378 2.84407 1.63864 0
430 1 Si 45.2364 173.763 1.61534 0
431 1 Si 48.0809 175.618 1.64479 0
432 1 Si 132.566 42.7563 1.62569 0
433 1 Si 129.849 44.5883 1.62489 0
434 1 Si 52.6717 6.88235 1.63024 0
435 1 Si 50.8348 9.41585 1.61436 0
436 1 Si 51.5137 3.88534 1.62835 0
437 1 Si 47.8168 10.216 1.62421 0
438 1 Si 55.8385 7.61253 1.64001 0
439 1 Si 56.9119 10.6434 1.6444 0
440 1 Si 52.2323 12.2197 1.61966 0
441 1 Si 55.1474 13.2989 1.62417 0
442 1 Si 58.1866 5.41464 1.63041 0
443 1 Si 57.2501 2.42637 1.62172 0
444 1 Si 54.0697 1.91935 1.62744 0
445 1 Si 147.173 40.776 1.62043 0
446 1 Si 61.3557 6.02943 1.63885 0
447 1 Si 62.1243 9.15884 1.62296 0
448 1 Si 59.9485 11.4619 1.62968 0
449 1 Si 63.6485 3.71499 1.6257 0
450 1 Si 59.419 0.0349441 1.61767 0
451 1 Si 62.7357 0.382471 1.64444 0
452 1 Si 67.2842 9.18337 1.62328 0
453 1 Si 66.454 5.67595 1.62189 0
454 1 Si 64.708 11.0916 1.60992 0
455 1 Si 71.7515 5.52447 1.61894 0
456 1 Si 69.0408 3.8071 1.62079 0
457 1 Si 72.1848 8.75434 1.62481 0
458 1 Si 70.0955 11.2785 1.60634 0
459 1 Si 74.0433 3.25101 1.629 0
460 1 Si 69.6525 0.648813 1.60992 0
461 1 Si 72.846 0.330826 1.6125 0
462 1 Si 165.101 42.1427 1.61622 0
463 1 Si 159.2 43.0868 1.61621 0
464 1 Si 162.285 43.7726 1.61925 0
465 1 Si 77.2206 7.26559 1.62457 0
466 1 Si 77.1095 4.05879 1.62064 0
467 1 Si 75.1844 9.6941 1.63239 0
468 1 Si 82.316 4.74442 1.62123 0
469 1 Si 85.4345 4.93932 1.61967 0
470 1 Si 82.2597 7.96612 1.61196 0
471 1 Si 86.4753 7.95127 1.61044 0
472 1 Si 84.4579 10.329 1.63577 0
473 1 Si 79.972 2.48403 1.62645 0
474 1 Si 87.8264 2.84181 1.62276 0
475 1 Si 87.343 175.843 1.63199 0
476 1 Si 83.7715 174.359 1.61097 0
477 1 Si 80.4695 175.446 1.61662 0
478 1 Si 79.5637 9.35968 1.6206 0
479 1 Si 170.861 42.2937 1.6347 0
480 1 Si 167.947 44.0799 1.61623 0
481 1 Si 90.6379 4.54397 1.60581 0
482 1 Si 89.5837 7.58991 1.60828 0
483 1 Si 176.503 42.0065 1.63356 0
484 1 Si 173.857 43.9062 1.61483 0
485 1 Si 93.9325 4.02836 1.62336 0
486 1 Si 96.2719 6.62222 1.62993 0
487 1 Si 91.4641 10.0581 1.61509 0
488 1 Si 94.6408 9.41429 1.61051 0
489 1 Si 94.2506 0.731856 1.62697 0
490 1 Si 90.9257 175.202 1.61653 0
491 1 Si 182.2 42.4613 1.6437 0
492 1 Si 179.219 43.7904 1.63839 0
493 1 Si 97.6857 0.0236013 1.62306 0
494 1 Si 97.5416 170.453 1.62612 0
495 1 Si 99.084 173.256 1.61092 0
496 1 Si 94.2231 170.558 1.60428 0
497 1 Si 91.2127 172.01 1.62947 0
498 1 Si 1.40886 42.6071 1.61124 0
499 1 Si 4.57166 41.7266 1.61479 0
500 1 Si 14.0801 11.0436 1.61792 0
501 1 Si 107.771 48.1159 1.60883 0
502 1 Si 105.32 50.1614 1.61503 0
503 1 Si 102.203 49.2158 1.61 0
504 1 Si 100.547 46.4051 1.63069 0
505 1 Si 115.716 45.7418 1.61636 0
506 1 Si 112.544 46.608 1.62167 0
507 1 Si 29.4927 12.5715 1.61562 0
508 1 Si 26.2511 13.2342 1.60227 0
509 1 Si 123.363 45.9311 1.65899 0
510 1 Si 120.563 47.1269 1.58358 0
511 1 Si 117.719 48.2135 1.62291 0
512 1 Si 36.9003 11.152 1.6221 0
513 1 Si 135.698 43.6926 1.60546 0
514 1 Si 47.3409 13.2753 1.62191 0
515 1 Si 50.1664 14.4584 1.63489 0
516 1 Si 152.822 43.8766 1.60924 0
517 1 Si 147.011 44.3692 1.62278 0
518 1 Si 150.085 45.5628 1.61463 0
519 1 Si 60.8091 14.5845 1.62076 0
520 1 Si 64.0285 14.3497 1.62596 0
521 1 Si 76.3864 12.6945 1.64963 0
522 1 Si 71.401 14.6856 1.63201 0
523 1 Si 74.8628 15.5448 1.64431 0
524 1 Si 79.5457 12.5627 1.62272 0
525 1 Si 157.685 45.8539 1.60282 0
526 1 Si 154.671 46.3896 1.60132 0
527 1 Si 90.4541 13.0916 1.61477 0
528 1 Si 84.7838 13.5902 1.62111 0
529 1 Si 87.7735 14.9347 1.63879 0
530 1 Si 188.188 42.9963 1.61911 0
531 1 Si 184.995 44.2419 1.64415 0
532 1 Si 95.9143 12.2982 1.64272 0
533 1 Si 93.4094 14.2618 1.62409 0
534 1 Si 98.9452 13.3261 1.60481 0
535 1 Si 191.514 43.8531 1.60201 0
536 1 Si 200.399 45.6761 1.62324 0
537 1 Si 0.16029 45.5211 1.62122 0
538 1 Si 16.0455 13.6195 1.62232 0
539 1 Si 19.4355 13.3003 1.62536 0
540 1 Si 110.779 49.4417 1.59871 0
541 1 Si 31.9182 14.7989 1.62126 0
542 1 Si 35.1548 13.9811 1.61585 0
543 1 Si 125.552 48.0149 1.5981 0
544 1 Si 122.743 49.2671 1.59137 0
545 1 Si 41.8477 14.6493 1.61702 0
546 1 Si 44.9164 15.1092 1.61608 0
547 1 Si 141.073 44.7803 1.61662 0
548 1 Si 137.907 46.0607 1.62841 0
549 1 Si 130.72 48.0486 1.62806 0
550 1 Si 128.009 49.8356 1.61339 0
551 1 Si 55.7448 16.5443 1.64199 0
552 1 Si 58.8988 17.3051 1.59983 0
553 1 Si 143.989 46.5709 1.61897 0
554 1 Si 65.6965 17.1783 1.60754 0
555 1 Si 69.0685 17.1634 1.59977 0
556 1 Si 160.678 46.4635 1.63255 0
557 1 Si 81.8088 14.9715 1.62722 0
558 1 Si 167.899 47.536 1.65081 0
559 1 Si 161.627 49.3194 1.60609 0
560 1 Si 164.951 49.1403 1.61175 0
561 1 Si 175.331 46.9314 1.61024 0
562 1 Si 170.614 49.6152 1.62233 0
563 1 Si 173.942 49.8112 1.61945 0
564 1 Si 178.617 46.9547 1.60841 0
565 1 Si 184.146 47.3928 1.6168 0
566 1 Si 181.221 48.8926 1.62582 0
567 1 Si 191.766 46.8589 1.63871 0
568 1 Si 13.634 15.9362 1.61863 0
569 1 Si 24.5692 16.0141 1.62752 0
570 1 Si 21.2873 15.9995 1.61557 0
571 1 Si 199.74 48.7113 1.60565 0
572 1 Si 1.98328 48.1759 1.61403 0
573 1 Si 0.926932 51.2278 1.60632 0
574 1 Si 201.385 51.4512 1.61376 0
575 1 Si 118.628 51.2443 1.6261 0
576 1 Si 110.744 52.8612 1.61294 0
577 1 Si 116.56 53.4439 1.6088 0
578 1 Si 113.573 54.1272 1.61855 0
579 1 Si 31.453 18.1003 1.61054 0
580 1 Si 25.9126 18.9924 1.62883 0
581 1 Si 28.9482 20.2863 1.6299 0
582 1 Si 121.672 52.1372 1.60562 0
583 1 Si 36.5966 16.8864 1.61136 0
584 1 Si 39.7522 17.3483 1.63277 0
585 1 Si 136.816 49.2135 1.6248 0
586 1 Si 133.473 50.2083 1.65222 0
587 1 Si 50.9551 17.3955 1.63442 0
588 1 Si 45.9877 17.8921 1.63013 0
589 1 Si 48.6442 19.2967 1.61165 0
590 1 Si 53.5564 18.9744 1.6049 0
591 1 Si 152.048 48.0726 1.62411 0
592 1 Si 60.4046 20.3223 1.60834 0
593 1 Si 63.879 20.0877 1.60627 0
594 1 Si 77.2993 18.235 1.60807 0
595 1 Si 80.8159 18.1866 1.62511 0
596 1 Si 93.965 17.319 1.63348 0
597 1 Si 88.5244 18.0299 1.59888 0
598 1 Si 91.4608 19.0874 1.62092 0
599 1 Si 99.2785 16.4755 1.63309 0
600 1 Si 96.8672 18.5741 1.63651 0
601 1 Si 14.2463 19.1265 1.61158 0
602 1 Si 20.5199 19.1005 1.63791 0
603 1 Si 17.4825 20.2842 1.60858 0
604 1 Si 5.03821 48.9636 1.62848 0
605 1 Si 7.66796 43.8887 1.63609 0
606 1 Si 7.84867 47.4481 1.63676 0
607 1 Si 105.652 53.4195 1.60097 0
608 1 Si 102.635 54.5752 1.61767 0
609 1 Si 100.642 52.059 1.61883 0
610 1 Si 34.4477 19.3201 1.61555 0
611 1 Si 108.3 55.3061 1.62092 0
612 1 Si 39.4326 20.6773 1.59623 0
613 1 Si 44.2151 20.2303 1.60246 0
614 1 Si 41.9995 22.197 1.65179 0
615 1 Si 127.196 53.0028 1.62968 0
616 1 Si 124.089 54.1757 1.63674 0
617 1 Si 51.6472 21.592 1.62218 0
618 1 Si 58.3418 22.9215 1.60482 0
619 1 Si 55.1741 23.7994 1.56102 0
620 1 Si 51.8737 24.69 1.59353 0
621 1 Si 143.014 50.1236 1.63156 0
622 1 Si 139.537 51.3139 1.63867 0
623 1 Si 68.8554 20.3713 1.59816 0
624 1 Si 76.875 21.5061 1.6096 0
625 1 Si 71.1375 22.3087 1.62421 0
626 1 Si 74.1069 22.7316 1.61698 0
627 1 Si 159.067 51.4672 1.62076 0
628 1 Si 152.174 51.2239 1.61204 0
629 1 Si 155.587 52.4142 1.61884 0
630 1 Si 83.0504 21.032 1.5993 0
631 1 Si 88.5095 21.1689 1.64373 0
632 1 Si 85.9631 22.8707 1.59999 0
633 1 Si 164.769 52.2951 1.63192 0
634 1 Si 161.712 53.3787 1.63828 0
635 1 Si 170.351 52.8194 1.63197 0
636 1 Si 167.424 54.084 1.64074 0
637 1 Si 175.668 52.7389 1.61974 0
638 1 Si 173.058 54.5859 1.63397 0
639 1 Si 181.347 52.1785 1.61942 0
640 1 Si 178.709 54.3169 1.64206 0
641 1 Si 11.2868 20.8756 1.60585 0
642 1 Si 23.3044 20.8496 1.62341 0
643 1 Si 34.9177 22.4952 1.61384 0
644 1 Si 29.5025 23.663 1.62483 0
645 1 Si 32.6481 24.8013 1.61151 0
646 1 Si 2.79001 53.8615 1.62753 0
647 1 Si 5.41754 52.1305 1.62429 0
648 1 Si 37.8893 23.6542 1.59618 0
649 1 Si 200.188 54.4249 1.61381 0
650 1 Si 117.439 56.4218 1.60805 0
651 1 Si 114.37 57.1616 1.60645 0
652 1 Si 48.6335 22.3552 1.58187 0
653 1 Si 45.7306 22.884 1.63178 0
654 1 Si 132.866 53.6091 1.64068 0
655 1 Si 129.779 54.9805 1.64353 0
656 1 Si 66.2245 22.3556 1.61387 0
657 1 Si 57.9852 26.0291 1.61193 0
658 1 Si 66.0153 25.6555 1.63053 0
659 1 Si 63.3519 27.2613 1.60747 0
660 1 Si 60.3357 27.8253 1.62187 0
661 1 Si 123.177 57.2757 1.62784 0
662 1 Si 120.029 58.259 1.63502 0
663 1 Si 148.955 52.7997 1.59391 0
664 1 Si 145.424 52.6476 1.62185 0
665 1 Si 81.7 23.9437 1.60771 0
666 1 Si 78.5709 24.335 1.62579 0
667 1 Si 138.558 54.6431 1.64627 0
668 1 Si 135.37 55.8537 1.64972 0
669 1 Si 155.289 55.7748 1.61027 0
670 1 Si 149.36 56.1552 1.61574 0
671 1 Si 152.402 57.6157 1.61709 0
672 1 Si 91.4805 22.2155 1.59413 0
673 1 Si 97.096 21.8015 1.62135 0
674 1 Si 94.3242 23.7069 1.60976 0
675 1 Si 18.1197 23.4869 1.61751 0
676 1 Si 12.2765 23.9801 1.64081 0
677 1 Si 15.3383 24.9568 1.62619 0
678 1 Si 23.872 24.0293 1.62463 0
679 1 Si 20.9021 25.2846 1.63423 0
680 1 Si 26.8356 25.6611 1.62447 0
681 1 Si 107.62 58.736 1.63418 0
682 1 Si 104.347 59.7932 1.63228 0
683 1 Si 101.685 57.6782 1.64149 0
684 1 Si 113.354 60.1685 1.62495 0
685 1 Si 110.119 61.0533 1.64446 0
686 1 Si 128.935 58.2085 1.648 0
687 1 Si 125.758 59.3 1.64337 0
688 1 Si 43.476 24.8182 1.64846 0
689 1 Si 144.095 55.7969 1.61316 0
690 1 Si 140.933 57.001 1.64931 0
691 1 Si 54.9813 26.9899 1.59633 0
692 1 Si 161.313 56.5382 1.62805 0
693 1 Si 158.167 57.5337 1.62664 0
694 1 Si 167.124 57.2857 1.64037 0
695 1 Si 164.036 58.4377 1.63551 0
696 1 Si 70.6417 25.3445 1.62889 0
697 1 Si 73.6325 25.8137 1.6212 0
698 1 Si 172.996 57.8079 1.62597 0
699 1 Si 169.894 59.0923 1.63239 0
700 1 Si 86.6058 26.1936 1.61562 0
701 1 Si 83.4267 26.6317 1.59794 0
702 1 Si 178.91 57.8444 1.6292 0
703 1 Si 175.891 59.4907 1.63128 0
704 1 Si 184.895 58.4555 1.62878 0
705 1 Si 181.81 59.8373 1.63899 0
706 1 Si 10.6668 26.7263 1.62539 0
707 1 Si 200.63 57.6787 1.65726 0
708 1 Si 197.697 59.3116 1.63414 0
709 1 Si 187.509 60.4057 1.63138 0
710 1 Si 190.709 60.4841 1.61048 0
711 1 Si 34.5255 27.5473 1.61931 0
712 1 Si 27.0878 29.0325 1.64621 0
713 1 Si 30.0074 31.0346 1.63831 0
714 1 Si 33.5244 30.635 1.62062 0
715 1 Si 37.7985 26.933 1.61937 0
716 1 Si 0.235788 59.0029 1.62589 0
717 1 Si 3.05819 57.1344 1.62679 0
718 1 Si 43.5721 27.8476 1.60684 0
719 1 Si 40.458 28.9171 1.61581 0
720 1 Si 49.649 27.2824 1.61109 0
721 1 Si 46.6147 29.0391 1.6514 0
722 1 Si 115.97 62.2256 1.63695 0
723 1 Si 119.187 61.3948 1.64377 0
724 1 Si 52.4009 28.9664 1.63356 0
725 1 Si 134.599 59.1978 1.64909 0
726 1 Si 131.439 60.3735 1.64976 0
727 1 Si 68.6237 27.637 1.62096 0
728 1 Si 146.517 57.9928 1.61214 0
729 1 Si 75.0618 28.5883 1.62397 0
730 1 Si 78.0361 27.5121 1.61513 0
731 1 Si 94.7474 26.9979 1.61999 0
732 1 Si 88.7658 28.8336 1.61695 0
733 1 Si 92.1628 29.1686 1.60914 0
734 1 Si 140.135 60.3426 1.64949 0
735 1 Si 136.993 61.5573 1.64762 0
736 1 Si 158.245 60.762 1.63444 0
737 1 Si 152.849 60.9975 1.61366 0
738 1 Si 155.696 62.6272 1.61572 0
739 1 Si 98.0216 28.0085 1.61845 0
740 1 Si 15.6179 28.0738 1.63493 0
741 1 Si 12.706 29.1258 1.63658 0
742 1 Si 21.1486 28.5076 1.64025 0
743 1 Si 18.2233 29.7964 1.63949 0
744 1 Si 103.3 62.9175 1.61732 0
745 1 Si 100.136 63.4467 1.6404 0
746 1 Si 98.3167 58.348 1.62462 0
747 1 Si 97.6461 61.4362 1.64206 0
748 1 Si 109.621 64.3755 1.61302 0
749 1 Si 107.328 66.7948 1.61444 0
750 1 Si 104.244 66.0665 1.61717 0
751 1 Si 23.9505 30.241 1.63138 0
752 1 Si 115.305 65.4059 1.64181 0
753 1 Si 112.191 66.3273 1.63859 0
754 1 Si 124.929 62.4892 1.6481 0
755 1 Si 121.738 63.4841 1.64838 0
756 1 Si 130.627 63.6272 1.64873 0
757 1 Si 127.431 64.6471 1.64882 0
758 1 Si 145.582 61.2518 1.6285 0
759 1 Si 142.517 62.6869 1.63422 0
760 1 Si 62.9761 30.3418 1.60922 0
761 1 Si 59.9222 30.836 1.59934 0
762 1 Si 163.715 61.6908 1.62749 0
763 1 Si 160.727 62.8374 1.61701 0
764 1 Si 70.3344 30.4862 1.60319 0
765 1 Si 65.4028 32.0943 1.59527 0
766 1 Si 68.3939 32.8382 1.63331 0
767 1 Si 169.34 62.3541 1.63219 0
768 1 Si 166.27 63.7434 1.62434 0
769 1 Si 73.513 31.4369 1.61241 0
770 1 Si 80.9993 28.719 1.6175 0
771 1 Si 175.18 62.775 1.61552 0
772 1 Si 172.122 64.0621 1.61848 0
773 1 Si 182.076 63.3379 1.62086 0
774 1 Si 176.848 65.5796 1.60925 0
775 1 Si 180.024 66.0202 1.62264 0
776 1 Si 81.3779 31.7998 1.61427 0
777 1 Si 87.5836 31.9615 1.61533 0
778 1 Si 84.4221 33.0449 1.62354 0
779 1 Si 187.799 63.5387 1.61782 0
780 1 Si 184.964 64.9452 1.62642 0
781 1 Si 193.094 62.6503 1.61755 0
782 1 Si 196.386 62.3118 1.62442 0
783 1 Si 190.807 64.8732 1.62435 0
784 1 Si 0.74405 62.3192 1.63355 0
785 1 Si 198.479 64.7322 1.61866 0
786 1 Si 201.778 64.5855 1.61267 0
787 1 Si 12.2441 32.1937 1.6365 0
788 1 Si 3.89394 63.484 1.64046 0
789 1 Si 6.25435 58.4014 1.6325 0
790 1 Si 6.77638 61.7118 1.63416 0
791 1 Si 23.1608 33.3496 1.6132 0
792 1 Si 17.5696 32.8716 1.6318 0
793 1 Si 20.1987 34.5 1.62555 0
794 1 Si 29.5943 34.2965 1.62007 0
795 1 Si 24.3371 36.2957 1.61972 0
796 1 Si 27.4002 36.7112 1.60409 0
797 1 Si 36.3654 32.7989 1.62052 0
798 1 Si 32.0909 36.2576 1.61027 0
799 1 Si 35.2967 35.8909 1.61992 0
800 1 Si 120.93 66.6718 1.64841 0
801 1 Si 117.748 67.6089 1.64446 0
802 1 Si 39.8302 32.163 1.61419 0
803 1 Si 136.258 64.9102 1.64046 0
804 1 Si 133.049 65.9187 1.64961 0
805 1 Si 45.9609 32.3507 1.63524 0
806 1 Si 42.7787 33.9828 1.64134 0
807 1 Si 52.1694 32.2959 1.6272 0
808 1 Si 49.0131 33.7954 1.61886 0
809 1 Si 147.748 63.5943 1.63194 0
810 1 Si 150.9 63.5136 1.63723 0
811 1 Si 58.2775 33.4006 1.62548 0
812 1 Si 55.1064 33.9568 1.61071 0
813 1 Si 159.941 66.0023 1.61186 0
814 1 Si 156.72 65.7889 1.6258 0
815 1 Si 165.605 66.9961 1.6403 0
816 1 Si 162.37 68.242 1.61747 0
817 1 Si 78.5945 33.5691 1.61291 0
818 1 Si 75.3371 34.2234 1.6361 0
819 1 Si 90.1855 34.0175 1.62126 0
820 1 Si 93.1576 32.3794 1.60824 0
821 1 Si 14.6705 34.2017 1.64119 0
822 1 Si 108.224 70.0015 1.61296 0
823 1 Si 111.413 69.4647 1.63467 0
824 1 Si 101.917 68.4191 1.61193 0
825 1 Si 99.3736 66.51 1.63618 0
826 1 Si 126.58 67.8556 1.64947 0
827 1 Si 123.4 68.8517 1.64826 0
828 1 Si 141.804 66.0922 1.63713 0
829 1 Si 138.636 67.3365 1.63177 0
830 1 Si 147.094 66.7148 1.63423 0
831 1 Si 144.345 68.272 1.64198 0
832 1 Si 151.937 66.5237 1.6142 0
833 1 Si 154.602 68.1884 1.602 0
834 1 Si 65.8001 35.1058 1.59945 0
835 1 Si 60.4539 35.7393 1.61013 0
836 1 Si 63.3896 36.8444 1.61422 0
837 1 Si 68.7698 36.0001 1.58367 0
838 1 Si 171.776 67.3065 1.60272 0
839 1 Si 168.649 68.4509 1.61823 0
840 1 Si 174.881 68.2427 1.61047 0
841 1 Si 83.2252 36.058 1.61367 0
842 1 Si 80.0462 36.3158 1.61492 0
843 1 Si 185.683 68.0549 1.61841 0
844 1 Si 180.595 69.3604 1.61672 0
845 1 Si 183.549 70.3443 1.62408 0
846 1 Si 89.5544 37.2463 1.62306 0
847 1 Si 83.9675 39.1988 1.61732 0
848 1 Si 87.0872 39.4367 1.60942 0
849 1 Si 191.472 68.063 1.62552 0
850 1 Si 188.579 69.4877 1.60981 0
851 1 Si 197.215 67.7414 1.60627 0
852 1 Si 194.472 69.476 1.64798 0
853 1 Si 202.348 67.805 1.62343 0
854 1 Si 199.732 69.6992 1.60894 0
855 1 Si 1.79519 68.9937 1.63422 0
856 1 Si 4.19514 66.7396 1.63201 0
857 1 Si 13.9924 37.3494 1.62591 0
858 1 Si 11.0199 38.8411 1.62488 0
859 1 Si 19.5399 37.5758 1.63513 0