ITEM: TIMESTEP
1327
ITEM: NUMBER OF ATOMS
15672
ITEM: BOX BOUNDS pp pp pp
0.0000000000000000e+00 2.0585716637508364e+02
0.0000000000000000e+00 1.7719742053831808e+02
-1.0000000000000000e+02 1.0000000000000000e+02
ITEM: ATOMS id type element x y z v_uncoordination
1 1 Si 155.398 46.4449 1.61503 0
2 1 Si 152.275 45.8463 1.62876 0
3 1 Si 158.404 45.5141 1.64157 0
4 1 Si 159.68 42.4373 1.61749 0
5 1 Si 157.427 39.8239 1.63546 0
6 1 Si 154.01 40.3102 1.62991 0
7 1 Si 151.641 42.732 1.61653 0
8 1 Si 155.082 49.5223 1.61895 0
9 1 Si 150.296 48.4731 1.63513 0
10 1 Si 152.351 50.9051 1.61027 0
11 1 Si 159.186 48.6552 1.61876 0
12 1 Si 157.521 51.3595 1.62332 0
13 1 Si 163.866 46.9135 1.63798 0
14 1 Si 165.405 44.1612 1.64941 0
15 1 Si 162.087 49.5202 1.63627 0
16 1 Si 163.094 41.8769 1.61351 0
17 1 Si 166.175 48.8455 1.63924 0
18 1 Si 168.698 44.5584 1.65156 0
19 1 Si 168.97 47.6693 1.62825 0
20 1 Si 165.568 51.809 1.64628 0
21 1 Si 162.668 52.6019 1.62938 0
22 1 Si 0.431145 31.0627 1.63613 0
23 1 Si 203.557 29.0537 1.62161 0
24 1 Si 3.21976 29.3503 1.63167 0
25 1 Si 0.510041 24.4554 1.6529 0
26 1 Si 3.19751 26.1328 1.64781 0
27 1 Si 203.572 25.8031 1.63072 0
28 1 Si 0.929172 34.425 1.61633 0
29 1 Si 200.272 28.7213 1.61909 0
30 1 Si 198.73 31.5045 1.63601 0
31 1 Si 200.78 34.2742 1.63282 0
32 1 Si 203.806 35.9744 1.64795 0
33 1 Si 6.16927 30.5834 1.62425 0
34 1 Si 4.17212 35.9442 1.63595 0
35 1 Si 6.89372 33.7468 1.62298 0
36 1 Si 146.396 36.7723 1.6341 0
37 1 Si 148.223 34.0142 1.61555 0
38 1 Si 143.173 37.7033 1.63449 0
39 1 Si 144.003 30.1148 1.63081 0
40 1 Si 147.323 30.8113 1.63539 0
41 1 Si 141.258 32.1881 1.61991 0
42 1 Si 140.71 35.4417 1.64976 0
43 1 Si 148.722 38.9956 1.60965 0
44 1 Si 151.473 34.7558 1.62134 0
45 1 Si 151.78 37.9592 1.61381 0
46 1 Si 142.544 41.0199 1.62533 0
47 1 Si 148.345 42.1432 1.61753 0
48 1 Si 145.18 43.2755 1.64967 0
49 1 Si 158.796 36.673 1.64238 0
50 1 Si 157.237 33.5076 1.63317 0
51 1 Si 162.157 36.7276 1.62478 0
52 1 Si 158.797 30.4942 1.62198 0
53 1 Si 161.878 30.9665 1.63169 0
54 1 Si 163.304 33.7963 1.63843 0
55 1 Si 154.005 32.675 1.63699 0
56 1 Si 164.696 38.9572 1.62927 0
57 1 Si 177.638 39.3485 1.62416 0
58 1 Si 174.478 38.1293 1.63089 0
59 1 Si 180.029 36.3626 1.63579 0
60 1 Si 176.242 32.0281 1.63514 0
61 1 Si 179.469 32.4816 1.63014 0
62 1 Si 174.475 34.8377 1.61565 0
63 1 Si 177.626 43.0645 1.63907 0
64 1 Si 171.403 39.7576 1.62821 0
65 1 Si 171.627 43.0766 1.6216 0
66 1 Si 174.594 44.8088 1.62787 0
67 1 Si 184.725 40.7655 1.61208 0
68 1 Si 183.359 37.2149 1.62907 0
69 1 Si 183.671 44.295 1.62265 0
70 1 Si 180.39 45.2673 1.62611 0
71 1 Si 188.084 41.0261 1.61891 0
72 1 Si 185.488 34.3879 1.6054 0
73 1 Si 188.461 35.6063 1.61765 0
74 1 Si 190.018 38.4684 1.62296 0
75 1 Si 185.662 47.297 1.61457 0
76 1 Si 188.746 46.8006 1.63739 0
77 1 Si 189.718 43.8011 1.64706 0
78 1 Si 111.333 2.44745 1.60794 0
79 1 Si 114.465 1.7524 1.62195 0
80 1 Si 111.31 5.77739 1.6213 0
81 1 Si 116.565 4.31321 1.61181 0
82 1 Si 114.538 6.95958 1.62302 0
83 1 Si 109.408 176.887 1.64111 0
84 1 Si 114.779 175.657 1.62998 0
85 1 Si 112.693 172.865 1.62255 0
86 1 Si 109.499 173.379 1.62799 0
87 1 Si 108.309 7.24124 1.61615 0
88 1 Si 105.149 6.06675 1.61287 0
89 1 Si 104.19 3.02507 1.6393 0
90 1 Si 106.405 0.660751 1.62323 0
91 1 Si 119.91 3.78903 1.61388 0
92 1 Si 120.555 0.395232 1.62531 0
93 1 Si 117.992 175.44 1.61948 0
94 1 Si 127.132 3.99992 1.61454 0
95 1 Si 125.039 6.70059 1.6286 0
96 1 Si 129.688 5.84461 1.63076 0
97 1 Si 129.769 9.01297 1.61524 0
98 1 Si 126.692 9.68062 1.61548 0
99 1 Si 128.476 0.868042 1.63038 0
100 1 Si 121.634 6.79012 1.61534 0
101 1 Si 126.526 175.424 1.61823 0
102 1 Si 123.172 175.523 1.62865 0
103 1 Si 132.492 4.60954 1.61634 0
104 1 Si 134.84 6.55049 1.6279 0
105 1 Si 135.104 9.56733 1.6443 0
106 1 Si 132.301 11.0067 1.61927 0
107 1 Si 134.099 1.93121 1.63453 0
108 1 Si 131.732 177.113 1.61995 0
109 1 Si 137.477 5.03629 1.61802 0
110 1 Si 137.235 1.96926 1.58645 0
111 1 Si 140.116 6.56883 1.60754 0
112 1 Si 138.244 9.093 1.63574 0
113 1 Si 142.434 4.4668 1.65099 0
114 1 Si 140.427 1.76987 1.60678 0
115 1 Si 145.452 5.92166 1.62649 0
116 1 Si 145.798 9.27486 1.64047 0
117 1 Si 139.927 11.61 1.6316 0
118 1 Si 143.137 11.2665 1.6036 0
119 1 Si 148.371 4.27404 1.61121 0
120 1 Si 148.219 0.977602 1.63126 0
121 1 Si 142.606 175.169 1.6297 0
122 1 Si 139.539 175.787 1.61696 0
123 1 Si 145.561 176.325 1.60941 0
124 1 Si 151.484 5.77658 1.6307 0
125 1 Si 151.874 9.12221 1.64537 0
126 1 Si 148.867 10.714 1.64549 0
127 1 Si 154.442 4.11392 1.64637 0
128 1 Si 154.026 0.795742 1.63683 0
129 1 Si 151.049 176.477 1.6364 0
130 1 Si 157.701 5.33786 1.61629 0
131 1 Si 159.839 7.99791 1.62535 0
132 1 Si 158.363 10.8949 1.62347 0
133 1 Si 154.915 10.8781 1.61596 0
134 1 Si 160.214 3.26583 1.64328 0
135 1 Si 159.889 0.0613704 1.62862 0
136 1 Si 156.768 176.144 1.64618 0
137 1 Si 163.218 4.4265 1.62297 0
138 1 Si 163.276 7.60132 1.59436 0
139 1 Si 165.985 2.69275 1.62177 0
140 1 Si 165.763 176.58 1.63228 0
141 1 Si 162.634 175.343 1.63459 0
142 1 Si 168.613 4.66771 1.62288 0
143 1 Si 166.744 7.67071 1.6246 0
144 1 Si 171.968 3.22367 1.63126 0
145 1 Si 173.716 0.0806085 1.62521 0
146 1 Si 168.387 174.489 1.63897 0
147 1 Si 171.727 174.699 1.62352 0
148 1 Si 174.549 5.25216 1.63649 0
149 1 Si 174.629 8.51097 1.62856 0
150 1 Si 168.333 10.5831 1.61925 0
151 1 Si 171.805 10.5615 1.61448 0
152 1 Si 177.615 4.17753 1.61214 0
153 1 Si 179.333 1.46684 1.6355 0
154 1 Si 177.221 176.146 1.62417 0
155 1 Si 179.998 6.33157 1.61481 0
156 1 Si 178.007 8.89472 1.62628 0
157 1 Si 183.135 5.35538 1.63473 0
158 1 Si 182.669 2.07344 1.61669 0
159 1 Si 186.109 7.09664 1.61315 0
160 1 Si 186.071 10.5642 1.62736 0
161 1 Si 179.826 11.5536 1.61999 0
162 1 Si 183.129 12.2024 1.63669 0
163 1 Si 189.157 5.38844 1.6194 0
164 1 Si 188.679 1.74469 1.62715 0
165 1 Si 185.477 0.221526 1.63633 0
166 1 Si 192.233 7.56568 1.63496 0
167 1 Si 188.911 12.4681 1.64452 0
168 1 Si 191.966 11.0562 1.62634 0
169 1 Si 196.198 3.09181 1.62286 0
170 1 Si 195.55 6.41986 1.64033 0
171 1 Si 194.539 0.210391 1.65239 0
172 1 Si 191.261 176.618 1.62747 0
173 1 Si 199.294 2.0237 1.61662 0
174 1 Si 201.289 6.45023 1.61527 0
175 1 Si 202.205 3.27633 1.62616 0
176 1 Si 198.476 8.27544 1.62152 0
177 1 Si 196.886 175.113 1.59596 0
178 1 Si 199.89 176.132 1.62478 0
179 1 Si 204.002 8.12955 1.6104 0
180 1 Si 1.08004 6.63969 1.61875 0
181 1 Si 1.86369 3.37222 1.63061 0
182 1 Si 205.108 1.42366 1.62944 0
183 1 Si 108.146 10.513 1.62026 0
184 1 Si 104.87 10.8269 1.61808 0
185 1 Si 102.761 8.30376 1.61065 0
186 1 Si 101.08 2.13313 1.59222 0
187 1 Si 101.895 176.37 1.61733 0
188 1 Si 104.751 175.282 1.60977 0
189 1 Si 116.019 9.97425 1.62948 0
190 1 Si 119.567 9.78249 1.61262 0
191 1 Si 202.744 11.1716 1.60636 0
192 1 Si 199.415 11.5549 1.62902 0
193 1 Si 3.27517 9.05299 1.61679 0
194 1 Si 205.231 13.1616 1.62907 0
195 1 Si 2.50592 12.1806 1.618 0
196 1 Si 6.25986 8.11954 1.63406 0
197 1 Si 6.80122 4.9947 1.62427 0
198 1 Si 5.00025 2.34304 1.64789 0
199 1 Si 8.93557 9.79939 1.61518 0
200 1 Si 9.93553 4.76283 1.62284 0
201 1 Si 11.3242 7.72575 1.60484 0
202 1 Si 110.425 13.0297 1.65162 0
203 1 Si 113.862 12.7334 1.62313 0
204 1 Si 120.633 12.9299 1.63832 0
205 1 Si 126.571 12.952 1.63311 0
206 1 Si 123.616 14.1093 1.60455 0
207 1 Si 137.632 13.8752 1.58463 0
208 1 Si 131.906 14.2279 1.61807 0
209 1 Si 134.84 15.5303 1.6412 0
210 1 Si 143.152 14.4806 1.61838 0
211 1 Si 140.18 15.7495 1.63516 0
212 1 Si 148.928 14.0324 1.62472 0
213 1 Si 146.096 15.793 1.62509 0
214 1 Si 160.232 13.8044 1.61384 0
215 1 Si 154.747 14.137 1.64463 0
216 1 Si 157.595 15.8094 1.62784 0
217 1 Si 166.684 13.6539 1.61544 0
218 1 Si 163.481 15.2656 1.64523 0
219 1 Si 172.2 13.8182 1.61605 0
220 1 Si 169.412 15.5708 1.63028 0
221 1 Si 177.899 14.1513 1.62081 0
222 1 Si 174.992 15.4991 1.64289 0
223 1 Si 183.137 15.4124 1.62677 0
224 1 Si 180.158 16.2925 1.63263 0
225 1 Si 189.21 15.84 1.63262 0
226 1 Si 184.609 18.2629 1.62715 0
227 1 Si 187.678 18.8772 1.62862 0
228 1 Si 194.115 13.7053 1.62962 0
229 1 Si 197.42 14.4162 1.6419 0
230 1 Si 109.063 16.1146 1.63961 0
231 1 Si 105.776 16.2595 1.63134 0
232 1 Si 103.666 13.7599 1.62094 0
233 1 Si 115.491 15.6474 1.6255 0
234 1 Si 118.748 15.6153 1.61915 0
235 1 Si 128.806 15.3601 1.60513 0
236 1 Si 151.834 15.6264 1.64093 0
237 1 Si 192.334 16.4731 1.63548 0
238 1 Si 205.047 16.2969 1.59882 0
239 1 Si 198.206 17.948 1.6179 0
240 1 Si 203.726 19.1492 1.63429 0
241 1 Si 200.759 20.1916 1.62474 0
242 1 Si 4.52993 14.6988 1.64625 0
243 1 Si 2.30038 16.9245 1.61373 0
244 1 Si 7.75821 15.2531 1.6176 0
245 1 Si 9.76022 12.8169 1.61501 0
246 1 Si 110.832 18.9735 1.63877 0
247 1 Si 114.145 18.6716 1.64018 0
248 1 Si 120.646 18.3016 1.63129 0
249 1 Si 123.692 17.2986 1.59798 0
250 1 Si 138.688 18.5553 1.61696 0
251 1 Si 135.429 18.6814 1.60607 0
252 1 Si 146.076 19.0039 1.64535 0
253 1 Si 140.521 21.1203 1.63352 0
254 1 Si 143.736 21.2466 1.63616 0
255 1 Si 151.817 18.8956 1.62831 0
256 1 Si 148.953 20.3663 1.6279 0
257 1 Si 157.571 19.1865 1.63724 0
258 1 Si 154.531 20.7793 1.62987 0
259 1 Si 163.529 18.816 1.63385 0
260 1 Si 160.59 20.7896 1.65148 0
261 1 Si 169.577 18.9435 1.64841 0
262 1 Si 166.574 20.4529 1.62732 0
263 1 Si 175.035 18.7846 1.62452 0
264 1 Si 172.515 20.6963 1.6184 0
265 1 Si 180.053 19.3829 1.62877 0
266 1 Si 177.418 20.9228 1.62382 0
267 1 Si 182.771 20.8773 1.62019 0
268 1 Si 192.981 19.6918 1.62043 0
269 1 Si 188.091 22.3474 1.62669 0
270 1 Si 191.322 22.5999 1.61605 0
271 1 Si 196.047 20.5065 1.62004 0
272 1 Si 3.04936 19.9194 1.64043 0
273 1 Si 5.94775 21.2031 1.61041 0
274 1 Si 10.1476 17.5495 1.61862 0
275 1 Si 9.14079 20.5921 1.62833 0
276 1 Si 109.388 22.0395 1.63473 0
277 1 Si 105.99 21.9254 1.63668 0
278 1 Si 104.171 19.0304 1.61762 0
279 1 Si 116.165 21.3147 1.63186 0
280 1 Si 119.521 21.3407 1.62991 0
281 1 Si 126.848 18.0205 1.63056 0
282 1 Si 127.681 21.0909 1.62086 0
283 1 Si 133.662 21.4138 1.64166 0
284 1 Si 130.607 22.2875 1.60522 0
285 1 Si 0.229112 21.3255 1.61178 0
286 1 Si 111.467 24.8001 1.61994 0
287 1 Si 114.701 24.2113 1.63273 0
288 1 Si 121.454 24.0913 1.6019 0
289 1 Si 126.703 24.0931 1.62054 0
290 1 Si 124.214 26.0111 1.61998 0
291 1 Si 138.624 23.7022 1.63105 0
292 1 Si 135.448 24.0484 1.63875 0
293 1 Si 148.14 23.4597 1.63153 0
294 1 Si 145.026 24.1958 1.62873 0
295 1 Si 153.577 24.013 1.6214 0
296 1 Si 150.584 25.4176 1.62285 0
297 1 Si 160.614 24.3092 1.62322 0
298 1 Si 155.137 26.8498 1.62567 0
299 1 Si 158.373 27.0888 1.62513 0
300 1 Si 166.717 23.7786 1.63692 0
301 1 Si 163.755 25.3543 1.6226 0
302 1 Si 174.326 23.5715 1.62393 0
303 1 Si 169.58 25.5342 1.60132 0
304 1 Si 172.827 26.3131 1.63076 0
305 1 Si 177.561 24.1341 1.60559 0
306 1 Si 182.911 24.0401 1.62228 0
307 1 Si 180.295 26.0041 1.63362 0
308 1 Si 185.905 25.1641 1.59965 0
309 1 Si 196.099 23.8764 1.61773 0
310 1 Si 193.156 25.3685 1.60958 0
311 1 Si 201.168 23.5579 1.61642 0
312 1 Si 198.82 25.694 1.61555 0
313 1 Si 5.80649 24.3495 1.63139 0
314 1 Si 111.309 28.2291 1.62929 0
315 1 Si 105.448 28.0354 1.62581 0
316 1 Si 104.133 24.6597 1.62305 0
317 1 Si 108.434 29.6288 1.62329 0
318 1 Si 116.683 26.7391 1.63402 0
319 1 Si 119.827 26.784 1.61461 0
320 1 Si 129.61 25.3258 1.59967 0
321 1 Si 140.006 26.5099 1.61816 0
322 1 Si 143.211 26.9054 1.628 0
323 1 Si 116.469 29.9162 1.61977 0
324 1 Si 113.502 30.8792 1.62202 0
325 1 Si 121.375 29.5857 1.61673 0
326 1 Si 124.564 29.4249 1.62512 0
327 1 Si 134.38 27.0898 1.62722 0
328 1 Si 131.247 28.1321 1.64737 0
329 1 Si 137.35 28.3509 1.62072 0
330 1 Si 149.974 28.6423 1.61199 0
331 1 Si 153.129 29.4953 1.62092 0
332 1 Si 163.879 28.5275 1.64273 0
333 1 Si 169.289 28.654 1.62945 0
334 1 Si 166.581 30.0669 1.62923 0
335 1 Si 174.522 29.1809 1.59322 0
336 1 Si 171.727 30.5481 1.63316 0
337 1 Si 181.22 29.2279 1.61677 0
338 1 Si 184.556 28.401 1.61718 0
339 1 Si 192.742 28.7138 1.64061 0
340 1 Si 186.476 31.0289 1.62608 0
341 1 Si 189.754 30.2766 1.59813 0
342 1 Si 195.389 30.8516 1.61691 0
343 1 Si 193.952 50.1292 1.62428 0
344 1 Si 191.523 48.1772 1.5965 0
345 1 Si 196.873 48.8019 1.60942 0
346 1 Si 192.519 45.1962 1.60211 0
347 1 Si 195.609 45.8524 1.62533 0
348 1 Si 193.256 53.1854 1.6232 0
349 1 Si 185.482 50.7662 1.60316 0
350 1 Si 187.239 53.7463 1.62631 0
351 1 Si 190.37 54.6372 1.63056 0
352 1 Si 199.82 50.281 1.63524 0
353 1 Si 199.188 53.5712 1.63535 0
354 1 Si 196.132 54.6252 1.6322 0
355 1 Si 119.122 31.7773 1.63336 0
356 1 Si 130.01 31.3424 1.6283 0
357 1 Si 126.656 32.2501 1.62666 0
358 1 Si 138.041 31.391 1.61904 0
359 1 Si 9.74403 1.45433 1.61971 0
360 1 Si 6.88512 176.816 1.62957 0
361 1 Si 15.2303 2.52999 1.6187 0
362 1 Si 12.7066 0.292105 1.62523 0
363 1 Si 16.7135 5.51665 1.61665 0
364 1 Si 16.4659 8.94361 1.62306 0
365 1 Si 13.5503 10.1433 1.63186 0
366 1 Si 17.4704 0.279004 1.62185 0
367 1 Si 13.0957 174.142 1.60493 0
368 1 Si 16.3245 174.529 1.64182 0
369 1 Si 19.7101 4.24209 1.61068 0
370 1 Si 20.5461 1.1253 1.61896 0
371 1 Si 8.72149 25.5175 1.6236 0
372 1 Si 8.76085 28.6709 1.62058 0
373 1 Si 27.4269 3.1448 1.6552 0
374 1 Si 30.6389 4.26779 1.63544 0
375 1 Si 25.0125 5.39902 1.60564 0
376 1 Si 30.9344 7.47454 1.61678 0
377 1 Si 25.6578 8.47596 1.63047 0
378 1 Si 28.5461 9.49132 1.62669 0
379 1 Si 26.4295 177.157 1.63222 0
380 1 Si 33.8091 3.15242 1.63117 0
381 1 Si 34.6216 0.00244117 1.62353 0
382 1 Si 28.7514 174.764 1.62763 0
383 1 Si 32.0442 174.998 1.61318 0
384 1 Si 21.9327 6.38191 1.63437 0
385 1 Si 23.147 176.317 1.63608 0
386 1 Si 103.896 30.9923 1.61586 0
387 1 Si 100.717 31.7337 1.62833 0
388 1 Si 101.014 22.9159 1.62806 0
389 1 Si 99.0593 25.3697 1.62673 0
390 1 Si 99.422 28.6679 1.64441 0
391 1 Si 108.746 32.9773 1.62039 0
392 1 Si 105.673 33.7502 1.62072 0
393 1 Si 36.4165 5.20874 1.61513 0
394 1 Si 33.2341 9.70767 1.62374 0
395 1 Si 36.1102 8.44518 1.6162 0
396 1 Si 46.5779 2.82864 1.62683 0
397 1 Si 44.1142 0.628021 1.63346 0
398 1 Si 39.653 4.70011 1.62797 0
399 1 Si 40.7322 1.50107 1.63257 0
400 1 Si 46.6422 6.12932 1.62239 0
401 1 Si 41.0408 7.71685 1.62808 0
402 1 Si 44.255 8.40896 1.63412 0
403 1 Si 49.5837 1.51421 1.60744 0
404 1 Si 48.8742 173.498 1.60994 0
405 1 Si 45.6758 174.749 1.61412 0
406 1 Si 51.1606 175.784 1.64009 0
407 1 Si 37.9872 176.564 1.61488 0
408 1 Si 113.853 34.2407 1.62979 0
409 1 Si 110.905 35.5402 1.62794 0
410 1 Si 49.7665 7.01679 1.60108 0
411 1 Si 51.2813 4.21349 1.61762 0
412 1 Si 59.3587 4.01852 1.58008 0
413 1 Si 62.1076 5.2728 1.6089 0
414 1 Si 56.7313 5.74875 1.58904 0
415 1 Si 61.5439 8.34159 1.58982 0
416 1 Si 58.4023 8.33768 1.63809 0
417 1 Si 56.8901 2.29475 1.6109 0
418 1 Si 65.1368 4.48613 1.61936 0
419 1 Si 65.7993 1.39259 1.63032 0
420 1 Si 63.4247 176.175 1.62612 0
421 1 Si 60.1653 175.753 1.59525 0
422 1 Si 57.1678 176.585 1.56523 0
423 1 Si 54.308 3.87044 1.60701 0
424 1 Si 132.26 33.834 1.64371 0
425 1 Si 135.53 33.4475 1.60284 0
426 1 Si 66.9805 7.12802 1.62031 0
427 1 Si 64.5533 9.34791 1.63065 0
428 1 Si 69.092 1.20189 1.60652 0
429 1 Si 67.7138 172.585 1.63535 0
430 1 Si 64.4069 173.093 1.62723 0
431 1 Si 69.4864 175.231 1.62355 0
432 1 Si 73.1733 5.85952 1.62497 0
433 1 Si 72.0242 2.793 1.62773 0
434 1 Si 70.267 7.61997 1.62046 0
435 1 Si 80.2848 5.763 1.60798 0
436 1 Si 76.5552 7.05385 1.6433 0
437 1 Si 83.0184 7.73743 1.61794 0
438 1 Si 76.1216 10.3779 1.61781 0
439 1 Si 82.3145 10.745 1.59798 0
440 1 Si 80.3951 13.134 1.62397 0
441 1 Si 77.3665 13.4511 1.6211 0
442 1 Si 77.3189 0.30716 1.60874 0
443 1 Si 80.449 0.43752 1.66019 0
444 1 Si 76.4774 174.509 1.61112 0
445 1 Si 78.9791 172.916 1.61031 0
446 1 Si 81.5277 174.676 1.61353 0
447 1 Si 82.4153 2.90356 1.60685 0
448 1 Si 74.2392 0.579024 1.62925 0
449 1 Si 166.344 33.1718 1.64533 0
450 1 Si 88.0121 4.8889 1.61906 0
451 1 Si 86.3822 7.86993 1.61471 0
452 1 Si 86.0161 1.95536 1.61062 0
453 1 Si 171.545 33.6621 1.62864 0
454 1 Si 168.763 35.1436 1.63124 0
455 1 Si 91.4601 4.87148 1.62042 0
456 1 Si 93.8821 7.3638 1.60154 0
457 1 Si 87.2745 11.1292 1.63223 0
458 1 Si 95.0021 10.565 1.62457 0
459 1 Si 89.7851 13.1376 1.61915 0
460 1 Si 92.9341 12.9399 1.61605 0
461 1 Si 92.8347 1.82757 1.61044 0
462 1 Si 91.3009 175.926 1.63112 0
463 1 Si 87.9929 175.729 1.61768 0
464 1 Si 96.9243 6.23327 1.605 0
465 1 Si 95.9296 3.05967 1.61305 0
466 1 Si 98.1022 0.825096 1.63886 0
467 1 Si 99.404 8.53191 1.63414 0
468 1 Si 100.098 173.928 1.61729 0
469 1 Si 97.1937 174.878 1.60815 0
470 1 Si 190.567 33.3214 1.6089 0
471 1 Si 20.8355 9.38085 1.61014 0
472 1 Si 18.6061 11.5872 1.59653 0
473 1 Si 193.668 33.4801 1.61854 0
474 1 Si 195.166 36.1305 1.62339 0
475 1 Si 198.3 36.1575 1.63376 0
476 1 Si 23.5546 10.7654 1.6162 0
477 1 Si 29.0888 12.5968 1.63612 0
478 1 Si 32.2653 12.7962 1.62319 0
479 1 Si 38.8237 10.1572 1.61389 0
480 1 Si 119.461 34.9737 1.61253 0
481 1 Si 125.662 35.8664 1.63228 0
482 1 Si 122.075 36.9958 1.62074 0
483 1 Si 116.464 36.272 1.62005 0
484 1 Si 50.5371 10.1406 1.62698 0
485 1 Si 45.0113 11.6409 1.63385 0
486 1 Si 48.2064 12.4726 1.62731 0
487 1 Si 131.656 37.0887 1.61522 0
488 1 Si 128.376 38.309 1.63912 0
489 1 Si 56.5733 10.7342 1.61978 0
490 1 Si 53.5109 11.1824 1.60121 0
491 1 Si 137.42 36.0511 1.59721 0
492 1 Si 70.5565 10.8331 1.62006 0
493 1 Si 64.9435 12.4775 1.62081 0
494 1 Si 68.1461 12.9815 1.61682 0
495 1 Si 73.4386 12.0769 1.63322 0
496 1 Si 84.6451 12.8345 1.58571 0
497 1 Si 82.6747 15.2079 1.62043 0
498 1 Si 98.2141 11.6176 1.60981 0
499 1 Si 12.8895 13.3802 1.59917 0
500 1 Si 104.815 36.8737 1.61759 0
501 1 Si 101.596 37.558 1.61842 0
502 1 Si 99.3115 35.0114 1.63566 0
503 1 Si 110.361 38.9134 1.62713 0
504 1 Si 106.916 39.4744 1.6299 0
505 1 Si 23.7017 13.8776 1.61859 0
506 1 Si 26.7813 14.8603 1.64536 0
507 1 Si 39.314 13.4114 1.64307 0
508 1 Si 42.6057 13.9537 1.64785 0
509 1 Si 134.899 38.1854 1.62649 0
510 1 Si 57.3152 13.7129 1.60808 0
511 1 Si 54.2514 14.2392 1.59992 0
512 1 Si 62.6709 14.8079 1.5998 0
513 1 Si 59.6044 15.7726 1.62954 0
514 1 Si 73.606 15.281 1.62485 0
515 1 Si 76.3819 16.687 1.58332 0
516 1 Si 168.199 38.3143 1.65125 0
517 1 Si 90.2302 16.3367 1.60766 0
518 1 Si 93.4588 16.0918 1.60814 0
519 1 Si 100.443 14.2626 1.61716 0
520 1 Si 193.281 38.6823 1.63738 0
521 1 Si 20.4651 14.4133 1.63475 0
522 1 Si 13.3997 16.6435 1.63124 0
523 1 Si 19.6286 17.581 1.61761 0
524 1 Si 16.3522 18.512 1.61206 0
525 1 Si 198.55 39.1813 1.61788 0
526 1 Si 195.791 40.6111 1.61829 0
527 1 Si 203.95 39.3226 1.63663 0
528 1 Si 201.177 40.6909 1.6179 0
529 1 Si 33.5696 15.7406 1.64093 0
530 1 Si 27.8486 17.9368 1.62809 0
531 1 Si 31.2426 18.2381 1.64584 0
532 1 Si 116.481 39.5464 1.61596 0
533 1 Si 113.238 41.0992 1.63884 0
534 1 Si 36.94 15.8747 1.63974 0
535 1 Si 49.1054 15.6238 1.63342 0
536 1 Si 43.5214 17.0845 1.64069 0
537 1 Si 46.7327 17.81 1.64056 0
538 1 Si 119.994 39.8386 1.62059 0
539 1 Si 52.2338 16.6202 1.63427 0
540 1 Si 205.348 42.3592 1.6395 0
541 1 Si 2.79539 42.2923 1.6068 0
542 1 Si 4.82897 39.4602 1.62295 0
543 1 Si 127.99 41.843 1.64739 0
544 1 Si 121.39 42.8474 1.62308 0
545 1 Si 124.825 43.2142 1.62453 0
546 1 Si 68.6334 16.0846 1.62765 0
547 1 Si 63.6107 17.8317 1.61416 0
548 1 Si 66.6071 18.482 1.62023 0
549 1 Si 136.128 41.1793 1.62316 0
550 1 Si 139.37 42.0921 1.61897 0
551 1 Si 71.3975 17.5193 1.60885 0
552 1 Si 82.9246 18.2509 1.64606 0
553 1 Si 88.6458 19.1665 1.62591 0
554 1 Si 85.62 19.7712 1.61427 0
555 1 Si 95.6775 18.5647 1.62883 0
556 1 Si 101.105 17.568 1.62096 0
557 1 Si 98.9315 19.8847 1.62496 0
558 1 Si 22.0094 20.0555 1.6126 0
559 1 Si 25.5412 20.4123 1.63333 0
560 1 Si 104.823 42.1856 1.62715 0
561 1 Si 101.512 40.9106 1.62071 0
562 1 Si 112.893 44.6573 1.63123 0
563 1 Si 109.515 46.3233 1.64053 0
564 1 Si 105.975 45.6214 1.62562 0
565 1 Si 37.9696 18.9957 1.64505 0
566 1 Si 41.2309 19.4317 1.64738 0
567 1 Si 133.942 43.6304 1.61493 0
568 1 Si 130.653 44.1914 1.63022 0
569 1 Si 139.267 45.3195 1.62907 0
570 1 Si 136.152 45.9995 1.62635 0
571 1 Si 58.8137 18.9103 1.61461 0
572 1 Si 53.3756 19.6528 1.62493 0
573 1 Si 56.3681 20.946 1.64211 0
574 1 Si 61.6399 20.2842 1.62423 0
575 1 Si 75.2861 19.9478 1.61567 0
576 1 Si 70.7132 20.6472 1.63093 0
577 1 Si 73.0437 22.7066 1.62243 0
578 1 Si 80.6417 20.3422 1.58876 0
579 1 Si 77.8249 21.6321 1.65293 0
580 1 Si 94.2993 21.3651 1.62565 0
581 1 Si 88.7 22.4859 1.61434 0
582 1 Si 91.6926 23.0893 1.64118 0
583 1 Si 197.37 43.3562 1.63286 0
584 1 Si 200.509 43.6969 1.59622 0
585 1 Si 16.6418 21.9319 1.61991 0
586 1 Si 19.9501 22.6868 1.61024 0
587 1 Si 203.284 45.1454 1.63807 0
588 1 Si 32.4919 21.3163 1.63563 0
589 1 Si 35.8367 21.564 1.65095 0
590 1 Si 119.364 45.6331 1.63332 0
591 1 Si 115.961 46.5655 1.62763 0
592 1 Si 47.788 20.8398 1.64243 0
593 1 Si 50.9054 21.6528 1.61498 0
594 1 Si 124.809 46.398 1.61591 0
595 1 Si 121.891 47.7068 1.61308 0
596 1 Si 130.293 47.5893 1.63512 0
597 1 Si 127.212 48.5412 1.62753 0
598 1 Si 67.6537 21.4696 1.61327 0
599 1 Si 62.5538 23.3155 1.6308 0
600 1 Si 65.7079 23.9971 1.63523 0
601 1 Si 144.813 46.6338 1.62226 0
602 1 Si 141.664 47.5598 1.62726 0
603 1 Si 147.103 49.1576 1.62744 0
604 1 Si 81.8618 23.207 1.62613 0
605 1 Si 84.8815 22.8259 1.6209 0
606 1 Si 96.3372 23.6965 1.61811 0
607 1 Si 11.0336 23.2903 1.60987 0
608 1 Si 14.1552 24.4652 1.6414 0
609 1 Si 27.0888 23.4448 1.62155 0
610 1 Si 21.4103 25.672 1.63008 0
611 1 Si 24.7589 25.7921 1.62528 0
612 1 Si 4.29878 45.3261 1.61298 0
613 1 Si 7.96093 40.7566 1.61927 0
614 1 Si 7.43882 44.1095 1.61668 0
615 1 Si 30.4965 24.0927 1.64351 0
616 1 Si 115.52 49.9128 1.63863 0
617 1 Si 109.713 49.6174 1.63134 0
618 1 Si 112.524 51.1072 1.63956 0
619 1 Si 135.652 49.0957 1.62254 0
620 1 Si 132.617 50.0237 1.61531 0
621 1 Si 42.3581 22.4613 1.64548 0
622 1 Si 37.1622 24.5886 1.63303 0
623 1 Si 40.4122 25.0178 1.64331 0
624 1 Si 45.5096 23.0873 1.64828 0
625 1 Si 122.888 50.807 1.62414 0
626 1 Si 117.572 52.4752 1.6205 0
627 1 Si 120.757 53.1659 1.62814 0
628 1 Si 141.028 50.7829 1.63901 0
629 1 Si 137.891 51.3889 1.63647 0
630 1 Si 57.3091 24.0977 1.61734 0
631 1 Si 60.2226 25.494 1.63266 0
632 1 Si 174.565 48.2295 1.62811 0
633 1 Si 169.741 50.7109 1.64388 0
634 1 Si 172.772 51.0054 1.60422 0
635 1 Si 77.1295 24.688 1.60013 0
636 1 Si 80.0604 25.6882 1.6211 0
637 1 Si 180.021 48.747 1.63407 0
638 1 Si 177.087 50.2383 1.63286 0
639 1 Si 86.7861 25.2582 1.62188 0
640 1 Si 182.221 51.2846 1.62544 0
641 1 Si 202.829 48.5239 1.6332 0
642 1 Si 205.718 50.1256 1.62278 0
643 1 Si 3.00041 48.6201 1.63607 0
644 1 Si 14.2109 28.1133 1.63131 0
645 1 Si 19.8807 28.6044 1.61964 0
646 1 Si 16.964 29.9887 1.641 0
647 1 Si 107.497 52.0236 1.63247 0
648 1 Si 104.321 51.9216 1.62488 0
649 1 Si 103.69 48.5134 1.61632 0
650 1 Si 32.033 27.2895 1.61971 0
651 1 Si 35.3173 27.3083 1.62293 0
652 1 Si 126.12 51.607 1.62408 0
653 1 Si 51.9622 24.5898 1.6285 0
654 1 Si 46.6118 26.0629 1.64521 0
655 1 Si 49.6736 26.6471 1.65046 0
656 1 Si 54.8094 25.9507 1.63066 0
657 1 Si 133.451 53.2652 1.62926 0
658 1 Si 127.9 54.5535 1.61659 0
659 1 Si 131.102 55.442 1.62056 0
660 1 Si 72.0794 26.1374 1.63624 0
661 1 Si 66.458 27.0854 1.62386 0
662 1 Si 69.3711 28.435 1.60839 0
663 1 Si 75.1087 27.1069 1.62743 0
664 1 Si 146.413 52.5033 1.64999 0
665 1 Si 143.168 53.3007 1.6275 0
666 1 Si 80.1356 28.7921 1.61503 0
667 1 Si 85.8775 28.533 1.65556 0
668 1 Si 82.9567 30.3215 1.62684 0
669 1 Si 91.9088 26.151 1.61303 0
670 1 Si 94.921 26.3446 1.61691 0
671 1 Si 11.5251 30.2726 1.61406 0
672 1 Si 111.68 54.1923 1.63283 0
673 1 Si 108.645 55.0054 1.63572 0
674 1 Si 116.495 55.4875 1.62458 0
675 1 Si 113.562 56.6576 1.63265 0
676 1 Si 25.8722 28.7465 1.60973 0
677 1 Si 31.2257 30.6931 1.61525 0
678 1 Si 28.1138 30.9592 1.63439 0
679 1 Si 41.9275 27.9099 1.63568 0
680 1 Si 36.8971 30.1214 1.62687 0
681 1 Si 40.0781 30.4206 1.634 0
682 1 Si 121.58 56.3513 1.60221 0
683 1 Si 118.699 57.6949 1.62562 0
684 1 Si 45.0337 28.8006 1.62293 0
685 1 Si 136.627 54.3136 1.62318 0
686 1 Si 153.714 53.8315 1.63315 0
687 1 Si 148.573 55.1526 1.62365 0
688 1 Si 151.764 56.2576 1.61729 0
689 1 Si 60.9248 28.6283 1.63412 0
690 1 Si 54.3057 29.0081 1.62526 0
691 1 Si 59.1731 31.4108 1.62483 0
692 1 Si 55.8427 31.7165 1.62403 0
693 1 Si 64.0419 29.1781 1.635 0
694 1 Si 156.907 54.4283 1.63669 0
695 1 Si 168.093 53.411 1.61916 0
696 1 Si 76.9941 29.7011 1.62424 0
697 1 Si 176.25 53.4853 1.63319 0
698 1 Si 173.113 54.3121 1.60241 0
699 1 Si 91.3199 29.0955 1.63324 0
700 1 Si 88.5171 30.3465 1.62133 0
701 1 Si 181.325 54.5178 1.61109 0
702 1 Si 178.374 55.8973 1.61872 0
703 1 Si 96.4095 29.0046 1.6256 0
704 1 Si 182.822 57.429 1.6222 0
705 1 Si 185.948 56.83 1.62087 0
706 1 Si 21.3231 31.4616 1.62059 0
707 1 Si 24.3286 31.4372 1.60652 0
708 1 Si 35.8497 33.1341 1.61555 0
709 1 Si 32.7198 33.8674 1.63146 0
710 1 Si 51.1799 29.3319 1.61662 0
711 1 Si 46.5827 31.7576 1.63434 0
712 1 Si 49.9192 32.1833 1.61915 0
713 1 Si 107.373 57.9867 1.64867 0
714 1 Si 104.15 58.3563 1.63825 0
715 1 Si 102.793 55.0514 1.6307 0
716 1 Si 205.556 53.5281 1.60348 0
717 1 Si 200.951 56.4008 1.6276 0
718 1 Si 204.219 56.6961 1.62264 0
719 1 Si 126.915 57.7373 1.61994 0
720 1 Si 123.858 58.7288 1.64442 0
721 1 Si 67.8916 31.6131 1.62593 0
722 1 Si 64.5556 32.2917 1.60143 0
723 1 Si 76.0713 32.7842 1.61877 0
724 1 Si 69.6373 34.3417 1.6245 0
725 1 Si 73.0023 34.1605 1.5912 0
726 1 Si 131.835 58.6735 1.60598 0
727 1 Si 129.041 60.2807 1.61897 0
728 1 Si 142.052 56.4951 1.62552 0
729 1 Si 138.694 56.9634 1.63895 0
730 1 Si 93.9536 30.7566 1.6407 0
731 1 Si 147.589 58.2192 1.62794 0
732 1 Si 144.366 58.9827 1.64686 0
733 1 Si 162.253 55.6589 1.63084 0
734 1 Si 159.258 56.6319 1.61557 0
735 1 Si 10.322 33.4858 1.62913 0
736 1 Si 17.3556 33.3058 1.62266 0
737 1 Si 12.3095 36.1873 1.62856 0
738 1 Si 15.6566 36.021 1.63052 0
739 1 Si 167.87 56.5365 1.62717 0
740 1 Si 164.793 57.64 1.63104 0
741 1 Si 20.3534 34.4389 1.6041 0
742 1 Si 2.84536 53.803 1.61098 0
743 1 Si 4.87778 51.337 1.60975 0
744 1 Si 112.439 59.6703 1.64064 0
745 1 Si 109.33 60.5705 1.63758 0
746 1 Si 26.4674 33.6564 1.62055 0
747 1 Si 117.78 60.7202 1.63958 0
748 1 Si 114.763 61.8254 1.63627 0
749 1 Si 41.2776 33.3237 1.62261 0
750 1 Si 38.5102 34.9201 1.63159 0
751 1 Si 137.438 59.9926 1.63427 0
752 1 Si 134.321 60.7494 1.63208 0
753 1 Si 44.3958 34.1443 1.6258 0
754 1 Si 153.321 59.291 1.62677 0
755 1 Si 150.157 60.3352 1.63253 0
756 1 Si 61.5107 33.7584 1.63088 0
757 1 Si 53.0295 33.6575 1.61088 0
758 1 Si 53.8648 36.8796 1.63312 0
759 1 Si 60.6174 36.9981 1.61929 0
760 1 Si 57.3342 38.111 1.61516 0
761 1 Si 159.936 59.8252 1.60252 0
762 1 Si 156.739 60.9971 1.6329 0
763 1 Si 171.109 57.1061 1.6341 0
764 1 Si 82.1543 33.6273 1.6319 0
765 1 Si 78.8061 34.6941 1.60816 0
766 1 Si 178.009 59.2313 1.63269 0
767 1 Si 171.936 60.3488 1.62742 0
768 1 Si 175.295 61.3769 1.61596 0
769 1 Si 90.0988 33.1722 1.62433 0
770 1 Si 84.8182 35.668 1.62143 0
771 1 Si 88.1393 35.6026 1.61074 0
772 1 Si 181.11 60.3111 1.61774 0
773 1 Si 93.3476 33.7374 1.61385 0
774 1 Si 95.8397 35.8662 1.62198 0
775 1 Si 190.585 57.8587 1.61353 0
776 1 Si 187.825 59.4726 1.6177 0
777 1 Si 196.051 57.7566 1.62234 0
778 1 Si 193.346 59.3696 1.6412 0
779 1 Si 44.7437 37.3089 1.63522 0
780 1 Si 47.6705 38.6546 1.61066 0
781 1 Si 50.9351 38.5491 1.63934 0
782 1 Si 198.98 58.9977 1.60737 0
783 1 Si 0.0233284 59.8361 1.62804 0
784 1 Si 3.37569 59.5035 1.6361 0
785 1 Si 4.38407 56.5052 1.61721 0
786 1 Si 68.3047 37.445 1.59313 0
787 1 Si 62.7757 39.6174 1.61422 0
788 1 Si 66.0676 39.9501 1.6242 0
789 1 Si 108.489 63.7368 1.63077 0
790 1 Si 105.353 64.7067 1.61819 0
791 1 Si 103.313 61.8577 1.62542 0
792 1 Si 73.6956 37.2956 1.60716 0
793 1 Si 71.0429 39.1674 1.62473 0
794 1 Si 76.9836 37.4902 1.62388 0
795 1 Si 123.163 62.0228 1.61227 0
796 1 Si 120.104 62.8171 1.6224 0
797 1 Si 129.013 63.6229 1.61819 0
798 1 Si 124.026 65.2406 1.63204 0
799 1 Si 127.026 66.1892 1.61741 0
800 1 Si 143.928 62.2844 1.62128 0
801 1 Si 138.599 62.9657 1.61821 0
802 1 Si 141.407 64.274 1.6281 0
803 1 Si 11.1722 39.3294 1.63008 0
804 1 Si 149.281 63.4473 1.6267 0
805 1 Si 146.255 64.5711 1.63253 0
806 1 Si 18.059 38.3298 1.61738 0
807 1 Si 13.9985 41.2038 1.63505 0
808 1 Si 17.5081 41.4459 1.62858 0
809 1 Si 21.1907 37.5198 1.63008 0
810 1 Si 163.347 60.5068 1.63075 0
811 1 Si 26.4969 36.8083 1.63219 0
812 1 Si 24.1079 38.9619 1.62053 0
813 1 Si 32.0514 37.2679 1.63542 0
814 1 Si 29.1373 38.4904 1.61654 0
815 1 Si 114.07 64.9472 1.63724 0
816 1 Si 110.966 65.844 1.63343 0
817 1 Si 38.7248 38.0432 1.62149 0
818 1 Si 33.3757 40.3892 1.62136 0
819 1 Si 36.601 40.4909 1.62213 0
820 1 Si 41.8426 38.8474 1.62918 0
821 1 Si 119.477 65.9135 1.6291 0
822 1 Si 116.552 67.0076 1.64106 0
823 1 Si 134.031 63.9825 1.62828 0
824 1 Si 131.461 65.7597 1.61442 0
825 1 Si 136.717 65.5192 1.6103 0
826 1 Si 157.135 64.2515 1.62812 0
827 1 Si 154.294 65.7489 1.60163 0
828 1 Si 151.176 65.9874 1.64119 0
829 1 Si 169.238 62.517 1.63958 0
830 1 Si 165.808 62.8106 1.63578 0
831 1 Si 84.4884 38.8666 1.62617 0
832 1 Si 78.3509 40.3888 1.62317 0
833 1 Si 81.6648 40.5468 1.61322 0
834 1 Si 175.922 64.8115 1.62624 0
835 1 Si 170.292 65.5489 1.61478 0
836 1 Si 173.228 66.9343 1.62079 0
837 1 Si 90.2318 38.1483 1.60992 0
838 1 Si 87.5772 40.0348 1.62863 0
839 1 Si 181.684 63.6373 1.63107 0
840 1 Si 179.154 65.9878 1.62416 0
841 1 Si 93.6626 38.4957 1.62496 0
842 1 Si 187.575 62.7259 1.64111 0
843 1 Si 184.857 64.6357 1.62639 0
844 1 Si 94.8239 41.58 1.62493 0
845 1 Si 98.3688 42.4273 1.64003 0
846 1 Si 193.321 62.5474 1.62929 0
847 1 Si 190.527 64.1251 1.62677 0
848 1 Si 198.92 62.2063 1.63798 0
849 1 Si 196.166 63.925 1.61964 0
850 1 Si 47.236 41.8005 1.5966 0
851 1 Si 41.5781 41.9709 1.62671 0
852 1 Si 44.4652 43.3508 1.64619 0
853 1 Si 50.3589 41.6366 1.62869 0
854 1 Si 204.534 63.0331 1.63672 0
855 1 Si 201.367 64.1956 1.62125 0
856 1 Si 57.8754 41.4062 1.62596 0
857 1 Si 52.2142 44.0776 1.61898 0
858 1 Si 55.4548 43.6167 1.61882 0
859 1 Si 105.159 68.1223 1.64653 0