LAMMPS data file via write_data, version 2 Aug 2023, timestep = 519, units = metal

15516 atoms
2 atom types

8.593676226397479 196.04585609163516 xlo xhi
5.742985360194469 170.7513379619841 ylo yhi
-100 100 zlo zhi

Masses

1 28.085
2 15.999

Atoms # full

6605 1 1 0 9.520170369308685 6.130300706724191 -1.6458083356876627 0 0 0
9288 1 2 0 8.795300267843839 7.4971915499788455 -2.233402000169166 0 0 0
9295 1 2 0 11.098317043894863 6.096330603292509 -2.157308171780349 0 1 0
9287 1 2 0 9.148301629199445 10.149684843600317 -2.2083452150255996 0 0 0
13070 1 2 0 9.430037293307947 6.14229506126797 -2.959208373648745e-06 0 0 0
6610 1 1 0 15.158412465432558 6.299849168480761 -1.6483163024237497 0 0 0
9301 1 2 0 15.288479513912101 7.87030722795691 -2.203436385649192 0 0 0
6609 1 1 0 15.472274497090261 9.43240326689855 -1.6480191218951517 0 0 0
9302 1 2 0 16.936864989114 9.99129127194529 -2.2173928467979467 0 0 0
9299 1 2 0 14.23355675792135 10.417973708619247 -2.1934029686422116 0 0 0
6816 1 1 0 18.314162657895984 10.719836467281702 -1.646412985050108 0 0 0
13075 1 2 0 15.136780123425993 6.317692538018907 -4.83463058910371e-07 0 0 0
6822 1 1 0 22.337118416320056 6.721660477046123 -1.6480184394181303 0 0 0
9623 1 2 0 23.89724418532009 6.565494970010027 -2.2250509300116996 0 0 0
9612 1 2 0 19.677152981076674 9.944059954467868 -2.207738025546216 0 0 0
6823 1 1 0 21.20476649459643 9.601310441761244 -1.6475613549931487 0 0 0
9621 1 2 0 21.664398032139946 8.121591400622194 -2.2208960735325323 0 0 0
9624 1 2 0 22.30729199096304 10.689442092742311 -2.2375079677156258 0 0 0
13288 1 2 0 21.203244569889524 9.622431798663689 -3.340027850196804e-07 0 0 0
6825 1 1 0 25.457554999078408 6.582009763951411 -1.645031617762683 0 0 0
9626 1 2 0 26.267072452503115 7.9215622265664845 -2.190491497442586 0 0 0
6832 1 1 0 30.507005611678036 7.667760896829625 -1.6476631387818874 0 0 0
6826 1 1 0 27.59571661574033 8.751476025569717 -1.6450318000397177 0 0 0
9629 1 2 0 29.04990324917824 8.215886931376646 -2.23528715580911 0 0 0
9628 1 2 0 27.383551593072585 10.28880067994066 -2.2037602942270538 0 0 0
13291 1 2 0 27.64694956580763 8.691794915174388 -6.169680116775965e-07 0 0 0
9639 1 2 0 30.702211270123417 6.10303852678202 -2.182493678800613 0 0 0
9648 1 2 0 35.908314863733466 6.849355513351207 -2.3060525969847157 0 0 0
9638 1 2 0 31.73458393424198 8.649385715665876 -2.2132635405761603 0 0 0
6833 1 1 0 32.97619329723549 9.607380155108105 -1.6491093384501534 0 0 0
9641 1 2 0 34.42854263953236 9.066321402549256 -2.259089068444783 0 0 0
6838 1 1 0 35.788565202945186 8.369538576238885 -1.6460072883901793 0 0 0
13303 1 2 0 35.677993557760495 8.372616838885403 -2.929224802258374e-07 0 0 0
9640 1 2 0 32.8401638195826 11.17071157109917 -2.1984644841425047 0 0 0
13298 1 2 0 32.96948374381013 9.581846007499607 -3.601096369181682e-07 0 0 0
9656 1 2 0 39.12476687246687 7.1355910480987745 -2.315725082307913 0 0 0
9649 1 2 0 37.193344144269446 9.13240677785385 -2.123109868632787 0 0 0
6843 1 1 0 38.6927308779039 8.580718338724424 -1.6460321084986684 0 0 0
9655 1 2 0 39.88952135655249 9.50179490072615 -2.2405557461428276 0 0 0
6844 1 1 0 40.78136457880244 10.737746599476079 -1.6484263938048203 0 0 0
9668 1 2 0 46.42755482772366 7.082617468768721 -2.1904127370860986 0 0 0
9664 1 2 0 44.83138355172016 9.297665862692622 -2.215404640725965 0 0 0
6851 1 1 0 46.279856254084834 8.665963085443344 -1.6490651841008985 0 0 0
9658 1 2 0 42.29451336262004 10.418910358893871 -2.2348973717072558 0 0 0
6848 1 1 0 43.8485240681537 10.510127342316958 -1.6471198177674147 0 0 0
9680 1 2 0 52.04297679439515 7.911520878960901 -2.1995647041991138 0 0 0
9669 1 2 0 47.45806722924056 9.73575635735481 -2.180157318440506 0 0 0
9676 1 2 0 50.07424652481681 9.817788450830289 -2.2091628665420573 0 0 0
6858 1 1 0 51.57909884486057 9.41836481413416 -1.647219992196481 0 0 0
6855 1 1 0 48.74926776454569 10.654970497462752 -1.647240981883492 0 0 0
9681 1 2 0 52.596728698530136 10.584388044985062 -2.234752998806022 0 0 0
6859 1 1 0 53.09179651244701 6.736241756410887 -1.6463814675100519 0 0 0
9683 1 2 0 54.59976061021963 7.003303042978834 -2.2538790417406873 0 0 0
6868 1 1 0 56.09345459031096 7.311329863212385 -1.6460727267086979 0 0 0
9697 1 2 0 57.18415570653646 6.222032994297948 -2.2331592313804465 0 0 0
6867 1 1 0 56.448732111958634 10.323439174441491 -1.64616102457443 0 0 0
9695 1 2 0 56.48718880844838 8.79248603499036 -2.234619309854677 0 0 0
9691 1 2 0 55.17902738088293 11.201729608970775 -2.2244124403441483 0 0 0
9696 1 2 0 57.82618505749019 10.960791649243246 -2.259778890327201 0 0 0
13333 1 2 0 56.070197451347006 7.2742832718275015 -2.4743740134665437e-07 0 0 0
13332 1 2 0 56.41492065705663 10.319322556926476 -3.2331638727260224e-08 0 0 0
9705 1 2 0 59.887643459318 6.397459450334088 -2.2601716945827777 0 0 0
6873 1 1 0 61.15481302875803 7.246836512847334 -1.646682784702449 0 0 0
9706 1 2 0 62.554266885402185 6.582114953441888 -2.2241414905070496 0 0 0
6872 1 1 0 61.441190595243306 10.259837106182303 -1.6455175687428074 0 0 0
9703 1 2 0 60.94877831541513 8.788082512112913 -2.206220244902592 0 0 0
9704 1 2 0 62.94734660397236 10.53508639732774 -2.2381400201775317 0 0 0
13338 1 2 0 61.15982600083496 7.208134237629101 -1.1118700780906448e-06 0 0 0
6882 1 1 0 64.09044821025104 6.384787824499792 -1.6474571328052376 0 0 0
9718 1 2 0 65.03329912398685 7.59662954932926 -2.2607672795169624 0 0 0
6881 1 1 0 66.0441847024378 8.744410795313776 -1.6463047785304938 0 0 0
9714 1 2 0 65.58604430496356 10.258842113591065 -2.1819225659039625 0 0 0
6885 1 1 0 68.93227927619132 9.176351845954857 -1.6474623235739654 0 0 0
9719 1 2 0 67.58038932759162 8.34665518647804 -2.1506070694186112 0 0 0
6878 1 1 0 64.33397800525725 11.213397331147718 -1.6459195867513756 0 0 0
9724 1 2 0 68.66463467379761 10.66956073601184 -2.278864878778041 0 0 0
13347 1 2 0 64.10014165921027 6.404184847734311 -1.6042441232542095e-07 0 0 0
13350 1 2 0 69.0180862808672 9.1534422638664 -1.9988109101529172e-07 0 0 0
13346 1 2 0 65.98026767600943 8.734591947321876 -8.40325928942e-07 0 0 0
6888 1 1 0 71.58434075839979 7.728004115443774 -1.636452437991221 0 0 0
9729 1 2 0 71.08318769517867 6.237989447102479 -2.10381474909776 0 0 0
9725 1 2 0 70.38879674685998 8.69105393579123 -2.2644750726144287 0 0 0
9730 1 2 0 73.097467966846 8.011977387051678 -2.2490483634364535 0 0 0
6894 1 1 0 74.54588133276023 8.56451544798504 -1.6482375154314535 0 0 0
9739 1 2 0 74.73806718457014 10.098860749020927 -2.2249461231796595 0 0 0
13359 1 2 0 74.53700692723628 8.491966525941175 -5.163209139859047e-07 0 0 0
13353 1 2 0 71.6510369788962 7.898827806056326 -2.7540357434316707e-07 0 0 0
9740 1 2 0 75.84887990255666 7.733021860870076 -2.232942800443629 0 0 0
6900 1 1 0 77.28943137424984 7.1457197088524955 -1.6465662584729126 0 0 0
9750 1 2 0 78.59752208732968 8.02359114827028 -2.19842700494934 0 0 0
6905 1 1 0 79.87303715398197 8.960430694320447 -1.6481945047242348 0 0 0
9757 1 2 0 79.61917799333271 10.542726280080634 -2.1860795189368796 0 0 0
6910 1 1 0 82.7280977223691 7.483497498445827 -1.6487176817894629 0 0 0
9765 1 2 0 82.85089435549162 5.872623100266414 -2.153353673810926 0 0 0
9758 1 2 0 81.31774621404674 8.260206534912035 -2.1669056377916975 0 0 0
9766 1 2 0 84.04467867896247 8.3809605093402 -2.202680031392062 0 0 0
6914 1 1 0 85.46542371467476 9.075436158019349 -1.644522260670283 0 0 0
9779 1 2 0 88.66466688811404 6.477128639398351 -2.2207433401393497 0 0 0
6918 1 1 0 88.29400078989133 7.979019257279911 -1.6445099637792158 0 0 0
9772 1 2 0 86.73534085399419 8.151774951935879 -2.165157473719164 0 0 0
9778 1 2 0 89.40562238936077 9.082508535577647 -2.229047974784964 0 0 0
6920 1 1 0 90.90120287896222 9.548144982929145 -1.6466303177535306 0 0 0
9771 1 2 0 85.94028479003492 10.555350644687522 -2.2600253689671206 0 0 0
13385 1 2 0 90.82082845733594 9.552734462246969 -4.498441085481978e-07 0 0 0
9783 1 2 0 92.11150065364244 8.557665258120862 -2.1818437455572757 0 0 0
6930 1 1 0 92.81540918483535 7.172388884350864 -1.6438893609475098 0 0 0
9796 1 2 0 94.35736609651327 7.135626510154999 -2.2389498605161537 0 0 0
6929 1 1 0 95.90547232408514 7.0852294324915785 -1.6490490032222869 0 0 0
9780 1 2 0 91.37681007161449 11.035827456282572 -2.2261359840309347 0 0 0
9790 1 2 0 96.73508597513694 11.12668710418472 -2.2367513391559544 0 0 0
9791 1 2 0 96.76263692024223 8.382204230292595 -2.2348204155239952 0 0 0
9798 1 2 0 91.85342844910824 5.97224670638022 -2.252712914516051 0 1 0
6925 1 1 0 97.47101498021856 9.762157055388915 -1.6458741210706056 0 0 0
9117 1 2 0 99.05111957484446 9.822079714231691 -2.1588778805281033 0 0 0
9102 1 2 0 101.71621885437796 10.246038478480244 -2.2019511513557957 0 0 0
6500 1 1 0 100.25908877606372 10.845461034303764 -1.6458067507407264 0 0 0
13390 1 2 0 97.39817131478667 9.7361743720707 -9.539773542812066e-08 0 0 0
6602 1 1 0 10.069200533253134 11.41803851707449 -1.6475500101005736 0 0 0
9289 1 2 0 9.365816106492586 12.810224047559798 -2.222400188790552 0 0 0
6608 1 1 0 13.19689728686489 11.610787472065136 -1.648620522171154 0 0 0
9290 1 2 0 11.644002329065833 11.316761851981617 -2.1950640423596406 0 0 0
9300 1 2 0 13.711553956901682 13.093618361186875 -2.224860892731158 0 0 0
9293 1 2 0 9.251604808040883 15.480617500177955 -2.222824628433698 0 0 0
9314 1 2 0 12.83312264128951 15.659182441276927 -2.1762738585478227 0 0 0
6619 1 1 0 14.015911050556214 14.621085618455671 -1.6446339829272376 0 0 0
13084 1 2 0 14.06201948302441 14.547717731110074 -7.299587290037019e-08 0 0 0
9611 1 2 0 18.309729494889403 12.28566797907241 -2.200466381421031 0 0 0
9316 1 2 0 15.441330596835192 15.241694260651874 -2.2208826346475234 0 0 0
6817 1 1 0 18.924198776089813 13.721104030954068 -1.6476856843719723 0 0 0
9613 1 2 0 18.051775410914153 14.9936823156799 -2.228503628842285 0 0 0
6818 1 1 0 16.83007450252138 15.94145232431467 -1.646998038647433 0 0 0
13282 1 2 0 18.92923050626707 13.720864085143193 -3.100282064369676e-07 0 0 0
13283 1 2 0 16.80419201790661 15.972353527356507 -4.453825730855718e-07 0 0 0
6828 1 1 0 23.424509433337523 11.75469634773906 -1.644994438296362 0 0 0
9630 1 2 0 24.929491494507122 11.416632324245702 -2.2390279599831917 0 0 0
9614 1 2 0 20.445748272023142 13.914335641469506 -2.256314643453605 0 0 0
6936 1 1 0 21.910892204217642 14.350934343916572 -1.6448779499741006 0 0 0
9632 1 2 0 23.044529664151895 13.273848736476348 -2.1775458875681766 0 0 0
9806 1 2 0 22.296833786343203 15.848001426102508 -2.223767793406686 0 0 0
9845 1 2 0 24.849494960863534 16.576538737106922 -2.241387647667796 0 0 0
6827 1 1 0 26.472218731380355 11.54573271841535 -1.6477049906967376 0 0 0
9631 1 2 0 27.21027326915342 12.890910090545361 -2.2512140435418817 0 0 0
6835 1 1 0 28.015750611879287 14.19266284260499 -1.6470511408627215 0 0 0
9644 1 2 0 29.56632539450883 14.190600830641415 -2.209170475568178 0 0 0
9645 1 2 0 27.281274260172864 15.53336770862319 -2.2577316355294506 0 0 0
13429 1 2 0 26.36470646135715 16.704865894172773 -5.5392587225169014e-08 0 0 0
13300 1 2 0 28.000377094976606 14.185371409810353 -2.815142314150252e-07 0 0 0
6836 1 1 0 31.00782536356577 14.773831540280845 -1.6467979223881495 0 0 0
9642 1 2 0 32.16231456648027 13.764906058822316 -2.2511284876455466 0 0 0
6834 1 1 0 33.25334962481422 12.6823343269056 -1.6466172159503758 0 0 0
9643 1 2 0 34.73947627951294 13.156268878186559 -2.2066287889717295 0 0 0
6846 1 1 0 36.03831662252335 14.018272133438968 -1.6536569931589291 0 0 0
9646 1 2 0 31.29542624808613 16.305319829913305 -2.213930083002763 0 0 0
9661 1 2 0 36.010858740860535 15.577203136905426 -2.234882965377828 0 0 0
9657 1 2 0 39.928038126640324 12.01820207589368 -2.281039631594271 0 0 0
9659 1 2 0 37.36255672186652 13.214600520463096 -2.270925861581734 0 0 0
6845 1 1 0 38.84107677876649 13.031891123573995 -1.553498408206427 0 0 0
9660 1 2 0 39.5824893600281 14.502250998283372 -1.6532486456939959 0 0 0
6850 1 1 0 41.19115537431133 14.852180861640452 -1.565544462342684 0 0 0
9667 1 2 0 41.275093684897385 16.287124443052424 -2.354367741737934 0 0 0
13315 1 2 0 41.66780883058569 15.070086475643384 -1.6660425973482804e-07 0 0 0
9663 1 2 0 44.383315874663175 11.99152990595154 -2.194699942609779 0 0 0
6849 1 1 0 43.77082934813311 13.430680779664026 -1.64295293666383 0 0 0
9665 1 2 0 42.22020364518196 13.708042011369157 -2.197001522121165 0 0 0
9666 1 2 0 44.67327657546085 14.673894786997462 -2.223232259233446 0 0 0
6857 1 1 0 46.04075830728625 15.391563551468929 -1.6477678309348611 0 0 0
13314 1 2 0 43.83523314718864 13.37193536840379 -7.240711600168994e-07 0 0 0
13322 1 2 0 46.10195238060818 15.440316467614975 8.20324754643901e-07 0 0 0
9675 1 2 0 48.796151439003 12.249288548465346 -2.1966886312696863 0 0 0
9677 1 2 0 47.29716279308802 14.483631768349396 -2.2144338868190374 0 0 0
6856 1 1 0 48.7129126088458 13.838626552723653 -1.6459471797140197 0 0 0
9678 1 2 0 49.86419428761054 14.924558847238531 -2.193392816200738 0 0 0
6866 1 1 0 50.86696232340077 16.151119307414067 -1.6461414111460015 0 0 0
9692 1 2 0 52.3745410951959 15.715735430319791 -2.192053942769334 0 0 0
13321 1 2 0 48.778048840593 13.780522508547575 -6.167180308406096e-07 0 0 0
13331 1 2 0 50.78410578083388 16.183215218516345 -6.671921985462296e-07 0 0 0
6864 1 1 0 53.70055777123833 11.659869328763957 -1.6474961671385984 0 0 0
6865 1 1 0 53.56943788458562 14.709711754385639 -1.6465660355664236 0 0 0
9690 1 2 0 53.35440446800058 13.170344417067223 -2.2286497954939204 0 0 0
9693 1 2 0 55.01560405937447 15.274076500879026 -2.219452688454553 0 0 0
6871 1 1 0 56.1272790843865 16.3576370153726 -1.6469747633088843 0 0 0
9700 1 2 0 57.62856757458702 15.939043392354378 -2.2279674078506835 0 0 0
13329 1 2 0 53.6775815607916 11.654643625029111 -3.039574486538049e-07 0 0 0
13336 1 2 0 56.16008947062371 16.337664542733517 -1.5185465038949972e-07 0 0 0
9699 1 2 0 60.43569722715764 11.441144666628217 -2.2182748796257186 0 0 0
6869 1 1 0 58.97305611129602 11.955925073281922 -1.6465180707215648 0 0 0
6870 1 1 0 58.838122801089305 14.966718574334953 -1.6469626697745634 0 0 0
9698 1 2 0 58.586203800933426 13.444499414592519 -2.224601996327378 0 0 0
9715 1 2 0 63.02304318145262 15.129468796286364 -2.245807333229811 0 0 0
9701 1 2 0 60.31880092041412 15.382886585052157 -2.2394703227380703 0 0 0
6880 1 1 0 61.73283248566408 15.989691768176879 -1.647033304939957 0 0 0
13345 1 2 0 61.770092170822366 15.957091268873663 -2.678445279862405e-07 0 0 0
13335 1 2 0 58.851773193048274 15.017110132773936 -2.985965933361355e-07 0 0 0
13334 1 2 0 58.974741746116216 11.96090767236437 -6.769255932218958e-07 0 0 0
9713 1 2 0 64.39011444131614 12.754330635580573 -2.240562516268744 0 0 0
6886 1 1 0 68.81677732664524 12.163326902163899 -1.6427989200847624 0 0 0
6879 1 1 0 64.3312891058577 14.302597758897015 -1.6488098422924191 0 0 0
9716 1 2 0 65.73284266993159 15.041921810246997 -2.1813513509527604 0 0 0
6887 1 1 0 67.23089739553505 14.567331928443597 -1.6395557754662395 0 0 0
9726 1 2 0 67.47915372993542 13.001786574567117 -2.128525098944321 0 0 0
9728 1 2 0 68.54297304118782 15.384827346431287 -2.2256228100697637 0 0 0
13343 1 2 0 64.33030439838154 11.270403634606204 -1.3879577645577713e-07 0 0 0
9741 1 2 0 72.69338351306531 11.830895472908805 -2.1769794279723675 0 0 0
6895 1 1 0 74.23583212875808 11.550050673555951 -1.6439056625460282 0 0 0
9727 1 2 0 70.19152724186456 12.817488773760866 -2.2767212192074897 0 0 0
6896 1 1 0 71.68925651853105 13.03422662825214 -1.6446956419115852 0 0 0
9743 1 2 0 72.23898665754032 14.467853929531602 -2.2257694463128894 0 0 0
6950 1 1 0 72.2601492250893 16.01250150026373 -1.6454211697176806 0 0 0
9826 1 2 0 73.72017992596335 16.583464599733222 -2.1944205735149387 0 0 0
6981 1 1 0 69.31091815744898 16.73793604676576 -1.6471075520922822 0 0 0
13361 1 2 0 71.65279095084686 13.061041109864442 1.9503735849448995e-07 0 0 0
9742 1 2 0 75.24131260234495 12.700476875388041 -2.24368557950909 0 0 0
6906 1 1 0 79.29905272150759 12.105608882866898 -1.647537003533776 0 0 0
6907 1 1 0 76.5076283491987 13.576986316587996 -1.646513091745166 0 0 0
9759 1 2 0 77.88570634156923 12.815206558221094 -2.200609306279911 0 0 0
6949 1 1 0 75.29906315379718 16.432356053127176 -1.650757236223264 0 0 0
9761 1 2 0 76.19140690983527 15.124701330575487 -2.194201015328056 0 0 0
13414 1 2 0 75.28313878719983 16.39216664832424 -9.618838515320591e-07 0 0 0
13372 1 2 0 76.57283866648729 13.60892410916539 -4.962614923366422e-08 0 0 0
9760 1 2 0 80.48252728582189 13.128560373502225 -2.215627429594684 0 0 0
6916 1 1 0 81.28508949407593 14.462884473240608 -1.652399658527305 0 0 0
9775 1 2 0 82.80710536901152 14.432851876920646 -2.3019404677571798 0 0 0
6917 1 1 0 84.29446076437374 14.277934007862585 -1.6223296074212885 0 0 0
9773 1 2 0 84.78590851278486 12.756640093575772 -1.961808998231186 0 0 0
9776 1 2 0 80.65386081339018 15.893305432242405 -2.2242380107271007 0 0 0
9777 1 2 0 85.4869446603655 15.273280625545105 -2.234309329774274 0 0 0
13381 1 2 0 81.2569518713284 14.419459674894753 7.823343025438387e-08 0 0 0
6915 1 1 0 86.23649889942321 12.054326535992056 -1.6126318923087388 0 0 0
9774 1 2 0 87.47139957276279 13.001519379852024 -2.2387988906356213 0 0 0
6921 1 1 0 88.45627748986809 14.212825273600135 -1.6390889738245615 0 0 0
9784 1 2 0 89.97947824974311 13.829856849588746 -2.1665314202080492 0 0 0
9785 1 2 0 88.39609141879656 15.785093541233907 -2.2128599202079307 0 0 0
13380 1 2 0 86.5558846569217 11.880457991729266 -2.450064043591619e-07 0 0 0
9782 1 2 0 94.14253065370829 11.516441157244534 -2.1686070970815265 0 0 0
6919 1 1 0 92.63303646400122 11.962658171269075 -1.644061086611097 0 0 0
6926 1 1 0 95.58857037708076 12.161355380602503 -1.647863707585531 0 0 0
6922 1 1 0 91.35712065282775 14.582637989163755 -1.6412476648374879 0 0 0
9781 1 2 0 92.52347498309982 13.533124096327168 -2.165506391976862 0 0 0
6927 1 1 0 95.70842355839852 15.243351945333822 -1.6437890870173184 0 0 0
9792 1 2 0 95.91356738278117 13.69349420862552 -2.22706132665268 0 0 0
9786 1 2 0 91.69712179817542 16.139982545219038 -2.1679109609266654 0 0 0
9794 1 2 0 94.30428249793309 15.87492508691475 -2.230181757696026 0 0 0
13392 1 2 0 95.70028415934844 15.170259158379361 -1.4788275838153847e-07 0 0 0
13391 1 2 0 95.64021831513124 12.203339184132428 2.260644495327727e-08 0 0 0
9116 1 2 0 99.84411927161474 12.368199540002205 -2.2113149868539135 0 0 0
9118 1 2 0 99.08361712410463 15.150169848206678 -2.2181460215035935 0 0 0
6501 1 1 0 100.04339641442367 13.92130995814472 -1.6441914080317972 0 0 0
9114 1 2 0 101.51154571982319 14.342159173342804 -2.2479091626058874 0 0 0
9793 1 2 0 96.8372136505356 16.355752702161062 -2.142284704387534 0 0 0
6928 1 1 0 98.40409027032709 16.565223106304643 -1.6409637353697328 0 0 0
12966 1 2 0 99.93276208942493 13.887614795523223 -5.168230691368371e-07 0 0 0
6617 1 1 0 9.446115447693993 17.012385323336904 -1.6457198078535167 0 0 0
9312 1 2 0 10.910401062993596 17.537656156231364 -2.2051475236100737 0 0 0
6618 1 1 0 12.420438096890534 17.176953621880823 -1.64561674060551 0 0 0
9315 1 2 0 13.42763356389538 18.341600593884287 -2.244507493369018 0 0 0
9357 1 2 0 8.946039067529538 20.585734293069578 -2.17448762657439 0 0 0
6656 1 1 0 9.442237861557755 22.08122616673552 -1.6487569112986629 0 0 0
9372 1 2 0 13.279722750757513 21.0428608658538 -2.230829004426746 0 0 0
6658 1 1 0 14.098357944139506 19.733007892660094 -1.6463951274954103 0 0 0
13121 1 2 0 9.496090757123051 22.145066009040693 -6.061093241064469e-07 0 0 0
13082 1 2 0 9.411003249965896 17.002392422130782 3.320828062857434e-07 0 0 0
9615 1 2 0 17.086589804851176 17.482503386291594 -2.215838128704677 0 0 0
6961 1 1 0 17.05249661063534 19.050527786942336 -1.6464665489419594 0 0 0
9374 1 2 0 15.664109761433421 19.78142615754479 -2.182948134626994 0 0 0
9843 1 2 0 18.302248641784896 19.976173644541607 -2.235730587799665 0 0 0
13460 1 2 0 19.518255631900892 20.875725688740477 -1.0304347223180972e-06 0 0 0
6995 1 1 0 19.588139765421765 20.850401254183623 -1.6456304090747038 0 0 0
6963 1 1 0 23.362760104376743 16.970472503688175 -1.6482306211243967 0 0 0
9846 1 2 0 22.957849903264446 18.440845436823686 -2.2608465335185572 0 0 0
9891 1 2 0 20.942994338034005 20.090711006631313 -2.202141403281942 0 0 0
6996 1 1 0 22.481001711709805 19.89098884962947 -1.6465403211155922 0 0 0
9893 1 2 0 23.493582954619562 21.055756853061386 -2.2351317523430514 0 0 0
6964 1 1 0 26.36837293898965 16.752846918786926 -1.644285027001106 0 0 0
9847 1 2 0 26.96564205868191 18.192612404450696 -2.182469717138037 0 0 0
6999 1 1 0 28.25213468029576 19.07538055140694 -1.644449819810465 0 0 0
9851 1 2 0 29.637515836329122 18.430313556695488 -2.259076074000069 0 0 0
9897 1 2 0 28.059032322269772 20.59322228296439 -2.242463877316049 0 0 0
7026 1 1 0 27.442365351666663 22.00316467807591 -1.649532582037599 0 0 0
13464 1 2 0 28.312585175971556 19.098738926686632 -4.398275200295646e-07 0 0 0
13491 1 2 0 27.434802301854 22.01999889392535 -3.0918382296678955e-07 0 0 0
9937 1 2 0 25.913060557896937 22.21115194426662 -2.2332872531909733 0 0 0
6966 1 1 0 31.05285029468985 17.84587472933982 -1.6483067261767008 0 0 0
9850 1 2 0 32.21441236003798 18.884025998282155 -2.2064829743496657 0 0 0
6967 1 1 0 33.742918961020784 19.17069673456407 -1.6447181221219789 0 0 0
9848 1 2 0 34.61355603363314 17.8735843738934 -2.189506747843947 0 0 0
6965 1 1 0 35.98104618104569 17.123984556544553 -1.6440042573737004 0 0 0
9852 1 2 0 34.309752623972805 20.61427599815008 -2.232254771329858 0 0 0
13430 1 2 0 36.02910662924663 17.070901147516114 -4.1334711258156804e-07 0 0 0
7030 1 1 0 34.743920492397635 22.113210997899124 -1.649493107187166 0 0 0
13432 1 2 0 33.77584424610793 19.2308301704849 -5.089864082714127e-07 0 0 0
9849 1 2 0 37.22898984584737 18.028831202245648 -2.2355801274033498 0 0 0
6969 1 1 0 38.33889387124875 19.100478170997693 -1.6471299552331102 0 0 0
9853 1 2 0 39.766011017978755 18.557204546630306 -2.2531198497803695 0 0 0
6968 1 1 0 41.07075572111281 17.765123150381335 -1.6527406711080357 0 0 0
9855 1 2 0 38.138912763526086 20.63471839805973 -2.2292250951351007 0 0 0
13433 1 2 0 40.98670402718317 17.74777083223075 -5.844707054996879e-07 0 0 0
7033 1 1 0 37.79937381509399 22.150676191411296 -1.645977627263232 0 0 0
9679 1 2 0 45.982951230226355 16.92061445154002 -2.283521114666561 0 0 0
9854 1 2 0 42.39790322754515 18.526749481287176 -2.2225814178969383 0 0 0
6971 1 1 0 43.26472095143575 19.776009164370397 -1.6424198708496982 0 0 0
6970 1 1 0 45.930947792719884 18.437631916453075 -1.6301806699884913 0 0 0
9856 1 2 0 44.781509320467364 19.47371719981036 -2.2345149355722618 0 0 0
9858 1 2 0 42.510909055907945 21.14497584116507 -2.1801694748060765 0 0 0
9861 1 2 0 47.0651932403095 21.865927839110704 -2.2309668234221225 0 0 0
13436 1 2 0 43.305518791858134 19.843800687442396 -1.0533748746019597e-06 0 0 0
9857 1 2 0 47.354003717072146 19.13979838047013 -2.0478486058555805 0 0 0
6972 1 1 0 50.72701318632244 19.304621862947517 -1.6504931727228185 0 0 0
9694 1 2 0 50.57540100064079 17.71408331985958 -2.1967572840989944 0 0 0
6973 1 1 0 47.996950122873315 20.60552612554292 -1.627424211529867 0 0 0
9859 1 2 0 49.5519616344511 20.37409961885556 -2.2001899168270915 0 0 0
9860 1 2 0 52.15799214330333 19.974897573092 -2.1804037495041464 0 0 0
13438 1 2 0 48.07211635652924 20.850163046958013 -4.1835074528493483e-07 0 0 0
13437 1 2 0 50.687561327096056 19.2585537286823 5.3163823027039315e-08 0 0 0
6974 1 1 0 55.99318608594796 19.38915477436144 -1.646348857622263 0 0 0
9702 1 2 0 55.66656093046844 17.853307738711138 -2.187283161209745 0 0 0
9863 1 2 0 57.53674776903586 19.669294470803806 -2.2055305982571762 0 0 0
6975 1 1 0 53.34388090696414 21.018720341627663 -1.6481851228861082 0 0 0
9862 1 2 0 54.811171197124004 20.429849122917116 -2.207802414565252 0 0 0
13439 1 2 0 55.98741714391149 19.466037702759333 -7.500199778076047e-07 0 0 0
9717 1 2 0 61.75415229119746 17.53161693165678 -2.2207607677109005 0 0 0
6978 1 1 0 61.714092785162954 19.076746041575777 -1.6477488461285361 0 0 0
9868 1 2 0 60.331062739891806 19.837788636319093 -2.2121374251200687 0 0 0
9869 1 2 0 63.15699796680111 19.67961230673002 -2.222806470180294 0 0 0
6979 1 1 0 58.881767113285754 20.467728887082355 -1.6478108025924028 0 0 0
9870 1 2 0 58.56767486393728 22.002148426253086 -2.2029119939109933 0 0 0
13443 1 2 0 61.69565508103187 19.13191983288745 -1.560470103468612e-08 0 0 0
6983 1 1 0 64.631576789124 20.178256954848262 -1.6447446400061605 0 0 0
9873 1 2 0 65.99140439383373 19.36894958240097 -2.1958864365982036 0 0 0
9872 1 2 0 68.31049908408647 17.91448987692004 -2.2294179022607947 0 0 0
6982 1 1 0 67.56895190169976 19.266265323338292 -1.6468162402682927 0 0 0
9875 1 2 0 64.77855674622633 21.717720878273866 -2.215931916125677 0 0 0
9874 1 2 0 68.59295529855515 20.42376405846986 -2.2311086217839673 0 0 0
9828 1 2 0 70.88788949482198 16.801751406194 -2.201799173118696 0 0 0
7003 1 1 0 69.29118573717132 21.789189639613056 -1.6483087804672056 0 0 0
9903 1 2 0 70.82656557100108 22.011831366201655 -2.214656913803169 0 0 0
9827 1 2 0 76.06752087766223 17.773878922680982 -2.2552242681266335 0 0 0
6952 1 1 0 76.26609419022324 19.29565202838909 -1.643716463650778 0 0 0
9831 1 2 0 77.62272974660286 20.06652242744105 -2.2195211538916886 0 0 0
6953 1 1 0 79.14650203396458 19.781710430892115 -1.6405793289845376 0 0 0
9829 1 2 0 79.39623909487048 18.206941150645548 -2.0950714505705297 0 0 0
9832 1 2 0 75.03510651778382 20.287217776570994 -2.128742058073773 0 0 0
7008 1 1 0 74.8773348005484 21.86378871861302 -1.6440793144513415 0 0 0
13473 1 2 0 74.87792609948377 21.97750826736195 5.960303609861446e-07 0 0 0
13418 1 2 0 79.15734247657385 19.89799791964491 -2.0918773730554816e-07 0 0 0
9833 1 2 0 80.28841514592261 20.878191136198815 -2.1803174364728735 0 0 0
6951 1 1 0 80.78024527150356 17.43470862154351 -1.6373695372514732 0 0 0
6956 1 1 0 85.610060595353 16.81412800324843 -1.619254579467294 0 0 0
9830 1 2 0 81.91640656195663 18.473944093069175 -2.278385816401188 0 0 0
6988 1 1 0 83.39122084191825 18.831068887666355 -1.6296285142776044 0 0 0
9838 1 2 0 84.17246217787292 17.446131891062066 -2.031324970843817 0 0 0
9882 1 2 0 84.24596606902865 20.060798909624122 -2.338485326627075 0 0 0
7017 1 1 0 84.76960110349783 21.39552336542301 -1.5002760558375705 0 0 0
9837 1 2 0 86.83189573089807 17.78660181779152 -2.1594422509082793 0 0 0
6957 1 1 0 88.35698344408014 17.340411261752873 -1.6334523924165927 0 0 0
9839 1 2 0 89.365285352289 18.526394394939942 -2.2371292426244027 0 0 0
9927 1 2 0 88.1261093886059 20.94146785949675 -2.1588903041532364 0 0 0
7019 1 1 0 89.4479304773463 20.088821967461175 -1.6457998656893305 0 0 0
9928 1 2 0 90.70497922306484 20.953361396458053 -2.277722997679284 0 0 0
6958 1 1 0 93.1203178316362 16.871033689735132 -1.64909454424389 0 0 0
9840 1 2 0 93.33036588974983 18.41018859725243 -2.2569411948702522 0 0 0
6991 1 1 0 94.0167997738314 19.799270694244292 -1.6400579425510096 0 0 0
7021 1 1 0 91.8825523820607 21.92488627262074 -1.641033550092973 0 0 0
9886 1 2 0 93.26681354435839 21.18330749516586 -2.1480344470593686 0 0 0
9885 1 2 0 95.56282771768939 20.071610946750756 -2.169221865621931 0 0 0
6992 1 1 0 96.60693166997363 21.265442098396573 -1.6464747770846688 0 0 0
13456 1 2 0 93.96528675265888 19.677406120841347 3.028116360585949e-07 0 0 0
13486 1 2 0 91.75072531973399 21.965302760550838 -1.732631586247537e-08 0 0 0
13423 1 2 0 93.14279981050574 16.951049325172015 -2.109387795640728e-07 0 0 0
9795 1 2 0 98.9739653713708 18.0401745905597 -2.2086903251799948 0 0 0
6990 1 1 0 99.20623096657441 19.616460019363466 -1.6481687467294894 0 0 0
9884 1 2 0 98.0599811924256 20.688990978864616 -2.2025794783041595 0 0 0
6661 1 1 0 102.10896717401734 20.82303205012243 -1.648204803838186 0 0 0
9379 1 2 0 100.61296764601096 20.32618601571742 -2.190152258061837 0 0 0
13126 1 2 0 102.11048805143433 20.883049792561884 -7.303536436710807e-07 0 0 0
13455 1 2 0 99.2098266558558 19.553030138675066 -7.003063160482769e-08 0 0 0
6657 1 1 0 12.559978803295271 22.42120378010873 -1.6491855418769332 0 0 0
9370 1 2 0 10.979416447616371 22.441475884815837 -2.2079818522516783 0 0 0
9373 1 2 0 13.5053860219924 23.680587889137318 -2.2021026263521217 0 0 0
9421 1 2 0 9.053950270527059 25.4646395613212 -2.0615433391151385 0 0 0
9447 1 2 0 13.44912602879413 26.323900455420564 -2.2135109688723698 0 0 0
6705 1 1 0 9.450735426297607 26.997168749331315 -1.6303132455996912 0 0 0
6706 1 1 0 12.438107997638612 27.4986976053075 -1.6506427533201273 0 0 0
9445 1 2 0 10.926809527695042 27.299907756330192 -2.285280794975323 0 0 0
13170 1 2 0 9.531279301775864 27.204824524631913 -2.0819795070168093e-07 0 0 0
13171 1 2 0 12.42323063792591 27.467582158909927 -1.4979696761762862e-07 0 0 0
9934 1 2 0 18.531994140423176 24.731972547822316 -2.2144628957723103 0 0 0
6707 1 1 0 14.30850030392044 25.033314913161398 -1.645747269042579 0 0 0
9449 1 2 0 15.872466960009026 25.2245280117274 -2.2123085671031233 0 0 0
7025 1 1 0 17.355158540333072 25.747047300136643 -1.647535587322355 0 0 0
9936 1 2 0 17.78974776055313 27.252332072478563 -2.219507769099914 0 0 0
13172 1 2 0 14.358675776626967 24.980754381290502 -4.088077986541984e-07 0 0 0
9892 1 2 0 19.68740981610996 22.404769818056863 -2.219330977308431 0 0 0
7024 1 1 0 19.874836581842295 23.95404706411137 -1.64701484594268 0 0 0
9935 1 2 0 21.256176157642518 24.732367662511148 -2.186363725735271 0 0 0
9939 1 2 0 23.73949035218102 23.731044843206654 -2.224679148208361 0 0 0
7027 1 1 0 24.375517778727975 22.324755033060356 -1.6467003953015567 0 0 0
7071 1 1 0 22.82389886602805 24.98096536733942 -1.6468884302299762 0 0 0
10005 1 2 0 23.589747961701892 26.35408517302063 -2.2051701612526484 0 0 0
13489 1 2 0 19.911381312943966 23.943091050408153 -4.2724455506442444e-07 0 0 0
9938 1 2 0 28.409629182456698 23.187720769888525 -2.266078628473022 0 0 0
7031 1 1 0 29.519898168747503 24.229987651862512 -1.6456900351757973 0 0 0
9946 1 2 0 29.078428897676485 25.725186800199438 -2.199786363430333 0 0 0