ITEM: TIMESTEP
1292
ITEM: NUMBER OF ATOMS
15480
ITEM: BOX BOUNDS pp pp pp
0.0000000000000000e+00 2.0406912847445361e+02
0.0000000000000000e+00 1.7658924793551643e+02
-1.0000000000000000e+02 1.0000000000000000e+02
ITEM: ATOMS id type element x y z v_uncoordination
1 1 Si 0.119915 36.9135 1.611 0
2 1 Si 203.991 33.6725 1.60997 0
3 1 Si 3.34777 36.1205 1.61897 0
4 1 Si 3.08718 32.7718 1.6132 0
5 1 Si 201.922 39.509 1.63855 0
6 1 Si 201.242 31.9841 1.62033 0
7 1 Si 198.148 33.289 1.62604 0
8 1 Si 196.29 36.062 1.64268 0
9 1 Si 198.32 38.9147 1.63517 0
10 1 Si 5.45705 41.7404 1.62503 0
11 1 Si 5.91073 38.306 1.62163 0
12 1 Si 203.34 42.754 1.62978 0
13 1 Si 2.67554 43.8465 1.64677 0
14 1 Si 119.961 40.3085 1.65069 0
15 1 Si 118.938 37.1255 1.6423 0
16 1 Si 117.693 42.7662 1.63965 0
17 1 Si 115.615 36.4337 1.6349 0
18 1 Si 113.459 39.0738 1.63193 0
19 1 Si 114.405 42.3014 1.63668 0
20 1 Si 123.237 41.0756 1.65122 0
21 1 Si 121.325 34.7599 1.64692 0
22 1 Si 124.63 35.6037 1.64707 0
23 1 Si 125.684 38.7831 1.65178 0
24 1 Si 124.165 44.2557 1.65061 0
25 1 Si 118.78 45.8817 1.63406 0
26 1 Si 121.951 46.6929 1.6433 0
27 1 Si 156.802 46.5901 1.61232 0
28 1 Si 153.966 44.9726 1.65478 0
29 1 Si 160.051 45.4768 1.61036 0
30 1 Si 156.033 37.5261 1.63411 0
31 1 Si 152.946 38.4915 1.62433 0
32 1 Si 158.46 39.8533 1.59587 0
33 1 Si 152.637 41.8816 1.61128 0
34 1 Si 160.716 42.3446 1.63571 0
35 1 Si 155.96 49.9268 1.61648 0
36 1 Si 151.866 47.4698 1.63105 0
37 1 Si 151.003 50.6067 1.63785 0
38 1 Si 153.508 52.4574 1.62035 0
39 1 Si 163.02 47.2209 1.61422 0
40 1 Si 161.7 50.1824 1.62601 0
41 1 Si 158.692 51.4557 1.62837 0
42 1 Si 106.798 3.93447 1.61829 0
43 1 Si 109.713 5.13139 1.61435 0
44 1 Si 104.862 6.39693 1.62495 0
45 1 Si 109.18 8.38078 1.62957 0
46 1 Si 106.062 9.35012 1.61758 0
47 1 Si 106.24 0.794489 1.62377 0
48 1 Si 111.747 2.60261 1.63581 0
49 1 Si 109.503 0.0598361 1.62244 0
50 1 Si 101.898 5.49978 1.6234 0
51 1 Si 100.949 2.4167 1.61432 0
52 1 Si 102.992 176.321 1.64166 0
53 1 Si 115.107 3.07646 1.6338 0
54 1 Si 116.288 6.24747 1.64032 0
55 1 Si 114.614 9.2339 1.61297 0
56 1 Si 111.545 10.5524 1.61875 0
57 1 Si 117.464 0.594903 1.62482 0
58 1 Si 121.879 4.03757 1.65107 0
59 1 Si 119.635 6.4316 1.64035 0
60 1 Si 120.815 0.992496 1.63686 0
61 1 Si 113.457 172.921 1.63143 0
62 1 Si 116.651 174 1.64197 0
63 1 Si 110.12 173.47 1.63226 0
64 1 Si 125.125 4.45392 1.6377 0
65 1 Si 126.612 7.25383 1.61559 0
66 1 Si 121.158 9.26006 1.62707 0
67 1 Si 124.425 9.6431 1.6353 0
68 1 Si 127.504 2.26076 1.63311 0
69 1 Si 126.586 175.809 1.63882 0
70 1 Si 123.307 175.343 1.64511 0
71 1 Si 130.62 3.16147 1.61588 0
72 1 Si 129.778 6.33193 1.62406 0
73 1 Si 133.206 1.01797 1.64307 0
74 1 Si 129.029 173.586 1.64696 0
75 1 Si 132.294 174.385 1.6446 0
76 1 Si 137.46 4.94767 1.63449 0
77 1 Si 135.346 7.55308 1.63021 0
78 1 Si 136.517 1.73097 1.63139 0
79 1 Si 132.124 8.44797 1.6233 0
80 1 Si 140.742 5.41974 1.63244 0
81 1 Si 142.17 8.31337 1.61067 0
82 1 Si 136.317 10.5785 1.60727 0
83 1 Si 138.794 12.5816 1.62732 0
84 1 Si 141.719 11.492 1.62481 0
85 1 Si 143.087 3.13482 1.6156 0
86 1 Si 142.299 176.475 1.64409 0
87 1 Si 138.928 175.876 1.63985 0
88 1 Si 145.709 5.11727 1.61982 0
89 1 Si 145.353 8.32423 1.60873 0
90 1 Si 148.768 4.4585 1.63098 0
91 1 Si 149.458 1.2837 1.57713 0
92 1 Si 147.787 172.919 1.61842 0
93 1 Si 150.391 174.734 1.62919 0
94 1 Si 144.562 173.886 1.6083 0
95 1 Si 153.369 4.83585 1.6288 0
96 1 Si 152.488 1.89709 1.62506 0
97 1 Si 151.018 6.84513 1.62037 0
98 1 Si 156.456 5.0988 1.61819 0
99 1 Si 157.151 1.97126 1.63014 0
100 1 Si 162.3 3.51589 1.61196 0
101 1 Si 160.101 0.98742 1.62109 0
102 1 Si 162.966 6.895 1.64025 0
103 1 Si 157.424 8.12238 1.61774 0
104 1 Si 160.488 9.11189 1.61992 0
105 1 Si 154.796 176.447 1.61329 0
106 1 Si 164.654 1.31261 1.62945 0
107 1 Si 163.769 174.738 1.63077 0
108 1 Si 160.584 174.286 1.62076 0
109 1 Si 167.712 2.3378 1.63795 0
110 1 Si 168.407 5.62039 1.64491 0
111 1 Si 166.149 8.10579 1.625 0
112 1 Si 169.832 176.36 1.63512 0
113 1 Si 173.708 3.85337 1.6198 0
114 1 Si 171.596 6.40138 1.62458 0
115 1 Si 173.019 0.603609 1.63032 0
116 1 Si 165.793 172.201 1.64156 0
117 1 Si 168.96 173.11 1.64738 0
118 1 Si 176.705 4.95473 1.64038 0
119 1 Si 177.503 8.04198 1.6299 0
120 1 Si 172.647 9.56602 1.63663 0
121 1 Si 175.761 10.6261 1.62864 0
122 1 Si 179.473 3.46111 1.6344 0
123 1 Si 180.51 0.475038 1.62774 0
124 1 Si 175.169 174.693 1.63473 0
125 1 Si 178.429 174.605 1.61701 0
126 1 Si 181.575 5.79755 1.62634 0
127 1 Si 180.55 8.71051 1.63538 0
128 1 Si 185.712 2.76982 1.62072 0
129 1 Si 184.62 5.69375 1.62323 0
130 1 Si 183.777 0.159644 1.63368 0
131 1 Si 188.524 4.39392 1.62283 0
132 1 Si 189.349 7.53676 1.63068 0
133 1 Si 186.357 8.30488 1.63806 0
134 1 Si 190.93 2.50007 1.62635 0
135 1 Si 190.394 175.933 1.61709 0
136 1 Si 188.181 173.581 1.64689 0
137 1 Si 184.923 173.717 1.61805 0
138 1 Si 193.764 3.94391 1.60572 0
139 1 Si 195.297 1.24458 1.62721 0
140 1 Si 193.478 175.318 1.62564 0
141 1 Si 195.589 6.50197 1.63649 0
142 1 Si 194.736 9.48712 1.62173 0
143 1 Si 191.559 9.87669 1.6579 0
144 1 Si 200.095 3.81018 1.63206 0
145 1 Si 198.76 6.56722 1.61953 0
146 1 Si 198.364 1.22831 1.62166 0
147 1 Si 203.175 3.45159 1.63112 0
148 1 Si 0.988212 6.13065 1.63922 0
149 1 Si 200.5 9.21376 1.61195 0
150 1 Si 203.796 9.28095 1.65505 0
151 1 Si 202.983 0.201312 1.6406 0
152 1 Si 200.128 175.272 1.6023 0
153 1 Si 4.04912 4.91378 1.62923 0
154 1 Si 4.01402 1.30603 1.62059 0
155 1 Si 1.68199 175.282 1.6109 0
156 1 Si 104.099 11.9861 1.63412 0
157 1 Si 100.893 11.1066 1.63268 0
158 1 Si 99.9443 7.99251 1.63345 0
159 1 Si 116.183 12.1372 1.6301 0
160 1 Si 111.07 13.9235 1.61855 0
161 1 Si 114.253 14.8807 1.62369 0
162 1 Si 119.454 11.9728 1.61749 0
163 1 Si 130.975 11.5603 1.62127 0
164 1 Si 133.926 12.6346 1.6186 0
165 1 Si 152.074 9.94114 1.64711 0
166 1 Si 146.709 11.2558 1.63098 0
167 1 Si 149.83 12.2698 1.6392 0
168 1 Si 155.301 10.6164 1.63483 0
169 1 Si 167.275 11.347 1.64227 0
170 1 Si 160.092 12.4038 1.61294 0
171 1 Si 165.51 14.1771 1.61734 0
172 1 Si 162.281 14.8034 1.62293 0
173 1 Si 170.551 12.0089 1.637 0
174 1 Si 182.141 11.4116 1.62532 0
175 1 Si 185.273 11.236 1.63979 0
176 1 Si 197.7 10.8398 1.62283 0
177 1 Si 1.34983 12.2616 1.61562 0
178 1 Si 4.55364 13.1628 1.62072 0
179 1 Si 6.46744 7.39441 1.61866 0
180 1 Si 6.82017 10.7823 1.62198 0
181 1 Si 104.962 15.2397 1.62013 0
182 1 Si 108.329 16.1452 1.64815 0
183 1 Si 125.288 12.7166 1.62234 0
184 1 Si 122.169 13.7782 1.61076 0
185 1 Si 128.461 13.7317 1.64778 0
186 1 Si 134.885 15.5954 1.62325 0
187 1 Si 138.074 15.7078 1.61674 0
188 1 Si 144.324 13.4172 1.61567 0
189 1 Si 156.965 13.4584 1.6131 0
190 1 Si 177.467 13.5177 1.64561 0
191 1 Si 171.993 14.9527 1.62395 0
192 1 Si 175.18 15.7792 1.61912 0
193 1 Si 180.815 14.3101 1.61646 0
194 1 Si 187.298 13.6132 1.60774 0
195 1 Si 190.373 12.8255 1.61779 0
196 1 Si 198.062 13.9306 1.62262 0
197 1 Si 200.829 15.6433 1.62951 0
198 1 Si 204.044 15.2548 1.62162 0
199 1 Si 115.448 18.0472 1.63425 0
200 1 Si 121.531 16.8114 1.63414 0
201 1 Si 118.642 18.2235 1.6276 0
202 1 Si 129.407 16.9474 1.62226 0
203 1 Si 132.589 17.8114 1.63093 0
204 1 Si 150.598 15.4832 1.61883 0
205 1 Si 145.026 16.5908 1.64629 0
206 1 Si 148.126 17.5024 1.63387 0
207 1 Si 156.253 16.7722 1.61722 0
208 1 Si 153.134 17.6246 1.62816 0
209 1 Si 166.87 17.1816 1.62073 0
210 1 Si 170.151 17.5961 1.62101 0
211 1 Si 183.289 16.8576 1.62591 0
212 1 Si 186.717 16.7507 1.60768 0
213 1 Si 195.21 15.3996 1.61244 0
214 1 Si 192.019 15.4937 1.62942 0
215 1 Si 199.527 18.5168 1.62171 0
216 1 Si 196.406 18.2588 1.63249 0
217 1 Si 2.1192 17.8095 1.62706 0
218 1 Si 5.13621 16.5003 1.61784 0
219 1 Si 102.301 17.5151 1.63087 0
220 1 Si 98.4894 13.2883 1.62412 0
221 1 Si 98.9911 16.6135 1.63493 0
222 1 Si 108.748 19.5628 1.6241 0
223 1 Si 106.157 21.6009 1.6214 0
224 1 Si 102.877 20.852 1.65047 0
225 1 Si 114.444 21.3628 1.62559 0
226 1 Si 111.246 21.8463 1.61852 0
227 1 Si 124.195 18.5167 1.61254 0
228 1 Si 119.695 21.1332 1.62258 0
229 1 Si 122.726 21.186 1.61948 0
230 1 Si 127.208 19.3073 1.63822 0
231 1 Si 139.594 18.535 1.63829 0
232 1 Si 142.864 19.0378 1.62978 0
233 1 Si 161.52 18.0618 1.62169 0
234 1 Si 158.398 19.4334 1.61558 0
235 1 Si 164.513 19.4964 1.62046 0
236 1 Si 175.746 18.9763 1.61977 0
237 1 Si 178.922 20.3261 1.61591 0
238 1 Si 182.36 19.9752 1.62073 0
239 1 Si 189.875 17.9995 1.62962 0
240 1 Si 199.987 21.643 1.63564 0
241 1 Si 1.64128 21.1386 1.61626 0
242 1 Si 202.937 22.9546 1.61442 0
243 1 Si 119.219 24.2542 1.62223 0
244 1 Si 116.071 24.4613 1.62611 0
245 1 Si 134.002 20.7251 1.64516 0
246 1 Si 126.861 22.5377 1.63135 0
247 1 Si 132.033 23.339 1.60563 0
248 1 Si 129.077 24.7091 1.61911 0
249 1 Si 137.349 20.9488 1.6353 0
250 1 Si 149.22 20.5329 1.62778 0
251 1 Si 144.1 22.0896 1.64243 0
252 1 Si 147.262 23.0263 1.63129 0
253 1 Si 152.401 20.8471 1.61464 0
254 1 Si 172.504 19.9545 1.61455 0
255 1 Si 165.296 22.7118 1.65325 0
256 1 Si 171.697 23.0777 1.63046 0
257 1 Si 168.487 23.8819 1.62602 0
258 1 Si 179.18 23.4917 1.6139 0
259 1 Si 184.62 22.6169 1.60451 0
260 1 Si 182.168 24.5396 1.61593 0
261 1 Si 191.38 20.9726 1.61918 0
262 1 Si 194.623 20.798 1.62093 0
263 1 Si 107.313 24.6916 1.6192 0
264 1 Si 110.526 25.1105 1.61937 0
265 1 Si 124.046 23.9578 1.60275 0
266 1 Si 121.844 26.182 1.64593 0
267 1 Si 138.694 23.8873 1.63745 0
268 1 Si 141.921 24.4523 1.64301 0
269 1 Si 157.283 22.8251 1.62278 0
270 1 Si 153.962 23.7805 1.63136 0
271 1 Si 162.764 24.8787 1.60908 0
272 1 Si 159.422 25.3786 1.63137 0
273 1 Si 174.041 25.4873 1.61837 0
274 1 Si 177.292 26.0095 1.61693 0
275 1 Si 187.165 24.9779 1.62947 0
276 1 Si 190.412 24.2033 1.62448 0
277 1 Si 197 22.8929 1.62225 0
278 1 Si 4.14088 23.3772 1.62444 0
279 1 Si 7.78074 18.6314 1.62919 0
280 1 Si 7.32532 22.0075 1.61489 0
281 1 Si 203.604 26.2217 1.61338 0
282 1 Si 2.90216 26.5872 1.62523 0
283 1 Si 105.315 27.2021 1.63571 0
284 1 Si 102.139 26.2195 1.63141 0
285 1 Si 100.51 23.3956 1.63092 0
286 1 Si 112.241 28.0183 1.61239 0
287 1 Si 115.482 27.7702 1.60961 0
288 1 Si 133.388 26.1946 1.63479 0
289 1 Si 128.411 27.9199 1.63165 0
290 1 Si 131.473 28.7715 1.6248 0
291 1 Si 136.549 26.2884 1.63359 0
292 1 Si 148.641 26.0441 1.63174 0
293 1 Si 151.954 26.6916 1.63825 0
294 1 Si 169.276 26.9874 1.62543 0
295 1 Si 163.921 27.8583 1.62279 0
296 1 Si 166.906 29.003 1.63765 0
297 1 Si 172.273 28.0991 1.61895 0
298 1 Si 182.978 27.5781 1.60593 0
299 1 Si 186.186 28.2555 1.63233 0
300 1 Si 192.815 26.6231 1.62722 0
301 1 Si 195.969 25.8431 1.62831 0
302 1 Si 106.428 30.373 1.63252 0
303 1 Si 111.896 31.3402 1.62253 0
304 1 Si 108.918 32.6087 1.63076 0
305 1 Si 122.725 29.316 1.62276 0
306 1 Si 125.999 30.1703 1.64075 0
307 1 Si 143.185 27.4359 1.63278 0
308 1 Si 137.653 29.1974 1.62219 0
309 1 Si 140.813 29.5461 1.63693 0
310 1 Si 146.348 28.3698 1.63925 0
311 1 Si 158.483 28.6402 1.61653 0
312 1 Si 152.694 30.109 1.63146 0
313 1 Si 155.956 30.9602 1.65711 0
314 1 Si 161.471 29.855 1.62637 0
315 1 Si 179.79 28.1665 1.62222 0
316 1 Si 173.298 31.1104 1.65743 0
317 1 Si 179.432 31.2354 1.63111 0
318 1 Si 176.335 32.1099 1.62074 0
319 1 Si 187.546 31.514 1.64251 0
320 1 Si 193.135 29.9325 1.64955 0
321 1 Si 190.973 32.4728 1.63537 0
322 1 Si 198.161 28.1349 1.61324 0
323 1 Si 201.322 28.662 1.6302 0
324 1 Si 104.052 32.4165 1.62633 0
325 1 Si 101.209 31.3711 1.6312 0
326 1 Si 100.037 28.5565 1.62653 0
327 1 Si 117.016 30.7654 1.63677 0
328 1 Si 114.72 33.1505 1.61764 0
329 1 Si 120.282 31.5662 1.62715 0
330 1 Si 132.59 31.81 1.63651 0
331 1 Si 127.094 33.3556 1.63804 0
332 1 Si 130.399 34.2766 1.63096 0
333 1 Si 135.836 31.8262 1.6261 0
334 1 Si 147.082 31.5735 1.63679 0
335 1 Si 150.263 32.654 1.64398 0
336 1 Si 167.872 32.0596 1.64741 0
337 1 Si 162.359 32.8894 1.63738 0
338 1 Si 165.395 34.0203 1.63804 0
339 1 Si 170.899 33.2257 1.64077 0
340 1 Si 182.014 33.1404 1.60957 0
341 1 Si 185.151 33.916 1.63324 0
342 1 Si 196.298 30.6873 1.61981 0
343 1 Si 4.78902 29.6326 1.64249 0
344 1 Si 108.482 35.9503 1.61209 0
345 1 Si 103.185 35.4835 1.63172 0
346 1 Si 105.586 37.42 1.61206 0
347 1 Si 141.288 32.6291 1.62641 0
348 1 Si 138.283 33.9016 1.62745 0
349 1 Si 144.39 33.5121 1.63657 0
350 1 Si 156.772 34.2485 1.60862 0
351 1 Si 159.897 34.8308 1.63457 0
352 1 Si 177.026 35.1504 1.64175 0
353 1 Si 171.764 36.3573 1.6394 0
354 1 Si 174.844 37.4062 1.64687 0
355 1 Si 180.125 35.6324 1.63642 0
356 1 Si 192.615 35.6597 1.63463 0
357 1 Si 110.187 38.7487 1.6419 0
358 1 Si 131.57 37.452 1.64155 0
359 1 Si 137.972 37.0506 1.62298 0
360 1 Si 134.889 38.5287 1.62047 0
361 1 Si 150.396 36.1638 1.6281 0
362 1 Si 144.34 36.6994 1.63168 0
363 1 Si 147.447 37.8439 1.62848 0
364 1 Si 166.358 37.0785 1.63458 0
365 1 Si 160.814 37.8069 1.63264 0
366 1 Si 163.78 38.8501 1.63903 0
367 1 Si 169.341 38.4237 1.63207 0
368 1 Si 184.843 37.2501 1.63043 0
369 1 Si 181.713 38.3166 1.62616 0
370 1 Si 190.634 38.5812 1.61814 0
371 1 Si 187.088 39.6113 1.62297 0
372 1 Si 11.1055 3.75099 1.6338 0
373 1 Si 14.3385 3.41186 1.62854 0
374 1 Si 9.62055 6.56055 1.61409 0
375 1 Si 16.1657 5.97841 1.62728 0
376 1 Si 14.8835 8.89843 1.64313 0
377 1 Si 11.6766 9.02988 1.61674 0
378 1 Si 9.66573 0.916932 1.61115 0
379 1 Si 15.3012 0.358889 1.61044 0
380 1 Si 12.3556 175.814 1.6078 0
381 1 Si 6.71904 176.11 1.63514 0
382 1 Si 99.0957 33.6298 1.63357 0
383 1 Si 100.149 36.512 1.64868 0
384 1 Si 108.214 41.415 1.62541 0
385 1 Si 105.091 40.5999 1.61846 0
386 1 Si 20.6223 2.89558 1.6169 0
387 1 Si 19.2692 5.744 1.64014 0
388 1 Si 20.5548 176.299 1.6214 0
389 1 Si 17.7994 174.812 1.62147 0
390 1 Si 23.62 3.5627 1.62121 0
391 1 Si 23.588 6.67444 1.63761 0
392 1 Si 21.0049 8.41917 1.61549 0
393 1 Si 25.3051 0.946293 1.64137 0
394 1 Si 23.4631 174.938 1.62341 0
395 1 Si 29.0403 7.00626 1.6082 0
396 1 Si 26.2128 8.14063 1.61238 0
397 1 Si 30.2014 4.20026 1.62736 0
398 1 Si 28.353 1.62251 1.61679 0
399 1 Si 29.9904 9.96022 1.61785 0
400 1 Si 27.0243 11.1387 1.62015 0
401 1 Si 33.3667 4.1519 1.6149 0
402 1 Si 33.5014 1.01966 1.62223 0
403 1 Si 30.6843 176.176 1.61852 0
404 1 Si 128.988 39.6417 1.64688 0
405 1 Si 35.9445 6.00632 1.65071 0
406 1 Si 35.5459 9.19988 1.61748 0
407 1 Si 32.9048 11.1568 1.61681 0
408 1 Si 38.785 4.40903 1.63217 0
409 1 Si 38.7448 1.20145 1.62916 0
410 1 Si 36.1549 175.946 1.62566 0
411 1 Si 41.6225 5.94964 1.64404 0
412 1 Si 41.2196 9.2333 1.64457 0
413 1 Si 38.2823 10.8242 1.61513 0
414 1 Si 44.4166 4.17331 1.62681 0
415 1 Si 44.2147 0.936901 1.59677 0
416 1 Si 41.3835 176.117 1.60768 0
417 1 Si 141.23 38.009 1.6213 0
418 1 Si 135.433 41.7953 1.61965 0
419 1 Si 141.269 41.1348 1.6223 0
420 1 Si 138.512 42.7995 1.63446 0
421 1 Si 49.9912 4.12809 1.63897 0
422 1 Si 47.1683 6.00793 1.62312 0
423 1 Si 52.3563 6.60657 1.63951 0
424 1 Si 52.451 9.98798 1.63122 0
425 1 Si 46.9179 9.5583 1.6362 0
426 1 Si 49.654 11.6296 1.65194 0
427 1 Si 50.528 0.437782 1.63117 0
428 1 Si 46.2057 172.069 1.61014 0
429 1 Si 44.1941 174.366 1.64466 0
430 1 Si 49.0627 173.685 1.6008 0
431 1 Si 55.4556 5.7052 1.62904 0
432 1 Si 56.0656 2.22593 1.62171 0
433 1 Si 53.7647 176.239 1.64532 0
434 1 Si 56.9895 8.81393 1.61814 0
435 1 Si 55.3136 11.7129 1.6208 0
436 1 Si 61.6225 6.12023 1.59187 0
437 1 Si 60.2115 9.09405 1.62549 0
438 1 Si 61.7108 2.84648 1.62334 0
439 1 Si 59.1657 0.809274 1.62469 0
440 1 Si 64.6539 7.12536 1.63187 0
441 1 Si 65.1515 10.2755 1.61629 0
442 1 Si 62.257 11.7842 1.61639 0
443 1 Si 66.752 4.77183 1.61351 0
444 1 Si 64.8754 2.17528 1.60673 0
445 1 Si 69.9454 4.59719 1.62386 0
446 1 Si 71.869 7.00881 1.62964 0
447 1 Si 70.9844 10.0403 1.62019 0
448 1 Si 68.1548 11.5607 1.63478 0
449 1 Si 71.8313 1.99328 1.62723 0
450 1 Si 66.5469 176.121 1.64047 0
451 1 Si 69.7124 176.314 1.62229 0
452 1 Si 74.9703 6.32644 1.6299 0
453 1 Si 76.2046 9.18237 1.65008 0
454 1 Si 73.9078 11.3513 1.62771 0
455 1 Si 76.7486 3.71528 1.65248 0
456 1 Si 74.9543 1.09957 1.64322 0
457 1 Si 79.9022 4.09762 1.6264 0
458 1 Si 81.1475 7.04658 1.62442 0
459 1 Si 79.3145 9.63686 1.63586 0
460 1 Si 82.2285 1.96101 1.62417 0
461 1 Si 79.1355 173.433 1.62363 0
462 1 Si 76.0573 174.615 1.62905 0
463 1 Si 81.866 175.336 1.61959 0
464 1 Si 84.3075 7.12853 1.61641 0
465 1 Si 84.8051 3.95753 1.62086 0
466 1 Si 176.19 40.3566 1.64315 0
467 1 Si 170.18 41.623 1.6437 0
468 1 Si 173.629 42.5016 1.63301 0
469 1 Si 90.5682 4.56591 1.62937 0
470 1 Si 87.7558 2.92301 1.61232 0
471 1 Si 91.3866 7.74192 1.63136 0
472 1 Si 85.714 10.0113 1.6395 0
473 1 Si 89.0015 10.0426 1.63348 0
474 1 Si 92.4948 1.99878 1.6064 0
475 1 Si 90.7898 175.881 1.634 0
476 1 Si 87.6395 176.28 1.61806 0
477 1 Si 179.58 40.783 1.62096 0
478 1 Si 95.5501 0.942506 1.62148 0
479 1 Si 97.0952 6.53701 1.62311 0
480 1 Si 97.7823 3.27106 1.62892 0
481 1 Si 94.5957 8.64624 1.63955 0
482 1 Si 92.6122 173.255 1.62626 0
483 1 Si 95.7577 174.211 1.61467 0
484 1 Si 192.693 41.2231 1.62875 0
485 1 Si 196.161 41.4997 1.63396 0
486 1 Si 16.804 11.5032 1.63957 0
487 1 Si 20.0878 11.4768 1.63395 0
488 1 Si 109.023 44.594 1.65341 0
489 1 Si 112.314 44.9954 1.63565 0
490 1 Si 129.804 42.8672 1.63903 0
491 1 Si 132.966 43.9595 1.64252 0
492 1 Si 43.8395 11.1601 1.613 0
493 1 Si 147.053 41.0683 1.62382 0
494 1 Si 144.164 42.4885 1.61579 0
495 1 Si 149.585 42.9128 1.61822 0
496 1 Si 164.051 41.9631 1.61944 0
497 1 Si 167.152 43.2314 1.63031 0
498 1 Si 80.3644 12.6593 1.62989 0
499 1 Si 83.6437 12.6478 1.64025 0
500 1 Si 185.043 42.6447 1.61685 0
501 1 Si 181.402 43.5568 1.60783 0
502 1 Si 95.5224 11.8332 1.62355 0
503 1 Si 190.648 43.8282 1.6211 0
504 1 Si 187.434 44.8641 1.63111 0
505 1 Si 9.98456 11.7405 1.61366 0
506 1 Si 15.1564 14.2409 1.62105 0
507 1 Si 11.8702 14.3909 1.6333 0
508 1 Si 25.4976 14.0176 1.62776 0
509 1 Si 22.0637 14.161 1.62155 0
510 1 Si 8.48185 43.2572 1.61596 0
511 1 Si 9.185 37.321 1.60602 0
512 1 Si 11.9003 39.1986 1.6157 0
513 1 Si 11.6332 42.2922 1.61883 0
514 1 Si 33.3994 14.3826 1.62285 0
515 1 Si 27.5272 16.7401 1.64507 0
516 1 Si 31.0239 17.0104 1.63326 0
517 1 Si 36.7246 13.7645 1.61339 0
518 1 Si 127.352 45.0851 1.64637 0
519 1 Si 42.2289 14.2306 1.62675 0
520 1 Si 39.1153 15.8331 1.63073 0
521 1 Si 106.532 46.8392 1.60855 0
522 1 Si 103.469 45.8571 1.62272 0
523 1 Si 102.57 42.704 1.63496 0
524 1 Si 50.0844 14.9995 1.62923 0
525 1 Si 44.2621 16.6245 1.62428 0
526 1 Si 47.4798 16.9089 1.63324 0
527 1 Si 55.8171 15.1899 1.61362 0
528 1 Si 52.9566 16.7479 1.62705 0
529 1 Si 139.867 45.6199 1.62113 0
530 1 Si 143.006 45.3662 1.62134 0
531 1 Si 62.5713 15.1622 1.60914 0
532 1 Si 57.7118 18.1016 1.62783 0
533 1 Si 60.9501 18.1243 1.61763 0
534 1 Si 68.6258 14.776 1.63378 0
535 1 Si 65.6702 16.3039 1.62629 0
536 1 Si 74.7429 14.4475 1.64999 0
537 1 Si 71.7696 16.0467 1.62228 0
538 1 Si 78.1088 15.1321 1.63923 0
539 1 Si 90.007 13.0282 1.63033 0
540 1 Si 93.0851 13.853 1.63156 0
541 1 Si 175.287 45.4483 1.6353 0
542 1 Si 178.921 46.1062 1.63772 0
543 1 Si 166.481 46.4438 1.61808 0
544 1 Si 172.82 47.7286 1.61656 0
545 1 Si 169.422 48.0817 1.63097 0
546 1 Si 197.673 44.4954 1.63549 0
547 1 Si 192.3 46.5264 1.64585 0
548 1 Si 195.479 46.9672 1.6326 0
549 1 Si 20.2741 17.04 1.6356 0
550 1 Si 16.829 17.0217 1.6211 0
551 1 Si 200.991 45.2241 1.643 0
552 1 Si 113.587 48.0632 1.61049 0
553 1 Si 105.351 49.9348 1.62708 0
554 1 Si 113.178 51.3342 1.62596 0
555 1 Si 107.368 52.2352 1.62045 0
556 1 Si 110.409 52.7248 1.61718 0
557 1 Si 116.771 48.3874 1.63189 0
558 1 Si 133.638 47.1874 1.62665 0
559 1 Si 128.13 48.2679 1.64231 0
560 1 Si 131.185 49.2141 1.63476 0
561 1 Si 139.132 48.6693 1.63275 0
562 1 Si 136.071 49.3985 1.62356 0
563 1 Si 149.128 46.0578 1.62277 0
564 1 Si 144.115 48.2224 1.62483 0
565 1 Si 147.163 48.5067 1.62807 0
566 1 Si 84.838 15.6338 1.63294 0
567 1 Si 79.5941 18.1576 1.63587 0
568 1 Si 83.0232 18.3895 1.61569 0
569 1 Si 88.0473 15.524 1.63096 0
570 1 Si 93.2934 16.9948 1.62298 0
571 1 Si 96.1104 18.5637 1.63674 0
572 1 Si 186.967 48.1357 1.59226 0
573 1 Si 190.068 48.7639 1.62536 0
574 1 Si 10.932 17.4661 1.61819 0
575 1 Si 22.3778 19.6192 1.60427 0
576 1 Si 25.6589 19.4854 1.62131 0
577 1 Si 3.54805 47.2332 1.63341 0
578 1 Si 201.905 48.5017 1.6512 0
579 1 Si 1.06978 49.5441 1.63836 0
580 1 Si 6.79608 48.4257 1.63472 0
581 1 Si 9.39502 46.3783 1.64173 0
582 1 Si 37.5838 18.8347 1.6139 0
583 1 Si 32.0839 20.2685 1.61943 0
584 1 Si 35.1995 21.1198 1.63856 0
585 1 Si 42.6458 19.3694 1.61712 0
586 1 Si 39.9253 20.8864 1.62051 0
587 1 Si 102.326 51.3504 1.6124 0
588 1 Si 101.345 48.2994 1.64683 0
589 1 Si 47.6832 20.0639 1.60335 0
590 1 Si 44.8942 21.4547 1.63238 0
591 1 Si 53.4963 20.0012 1.61632 0
592 1 Si 49.0834 22.8808 1.62858 0
593 1 Si 52.1513 22.9728 1.62137 0
594 1 Si 122.901 49.8605 1.64713 0
595 1 Si 126.028 50.7357 1.6416 0
596 1 Si 117.784 51.4634 1.63974 0
597 1 Si 120.845 52.3809 1.63757 0
598 1 Si 56.4511 21.2471 1.60481 0
599 1 Si 141.825 50.3932 1.62224 0
600 1 Si 65.7846 19.5072 1.61982 0
601 1 Si 62.8437 20.9351 1.60897 0
602 1 Si 71.6316 19.2853 1.62378 0
603 1 Si 68.7384 20.8459 1.62534 0
604 1 Si 77.5777 20.8035 1.62552 0
605 1 Si 74.335 20.9883 1.63094 0
606 1 Si 90.1871 17.8743 1.62472 0
607 1 Si 174.25 50.6531 1.63676 0
608 1 Si 179.971 49.3977 1.60384 0
609 1 Si 177.401 51.4219 1.61939 0
610 1 Si 168.904 51.2083 1.60823 0
611 1 Si 171.745 52.6092 1.6064 0
612 1 Si 13.9814 18.8039 1.60817 0
613 1 Si 185.74 51.2207 1.63049 0
614 1 Si 182.5 51.7037 1.6218 0
615 1 Si 13.5024 21.9675 1.61805 0
616 1 Si 22.3427 22.8452 1.61757 0
617 1 Si 16.5443 23.035 1.59626 0
618 1 Si 19.5203 24.0072 1.64159 0
619 1 Si 196.283 50.1059 1.63086 0
620 1 Si 199.496 50.849 1.64473 0
621 1 Si 27.075 22.4273 1.63445 0
622 1 Si 30.2562 23.095 1.62871 0
623 1 Si 115.512 53.6885 1.62697 0
624 1 Si 132.208 52.2598 1.62826 0
625 1 Si 127.059 53.8708 1.6456 0
626 1 Si 130.217 54.7333 1.63556 0
627 1 Si 135.39 52.5878 1.618 0
628 1 Si 147.953 51.597 1.61486 0
629 1 Si 142.581 53.4991 1.6223 0
630 1 Si 145.874 54.1191 1.62776 0
631 1 Si 85.2863 20.9013 1.63458 0
632 1 Si 78.4114 24.0103 1.63504 0
633 1 Si 84.1337 23.9511 1.61192 0
634 1 Si 81.2423 25.5563 1.61578 0
635 1 Si 88.7191 20.6741 1.62009 0
636 1 Si 94.7821 21.7098 1.62872 0
637 1 Si 91.3945 22.6633 1.62024 0
638 1 Si 97 24.1195 1.62555 0
639 1 Si 163.383 52.813 1.62576 0
640 1 Si 166.483 53.2097 1.6308 0
641 1 Si 190.743 51.7958 1.62924 0
642 1 Si 188.106 53.6346 1.61305 0
643 1 Si 10.3957 23.4748 1.6274 0
644 1 Si 193.892 52.3703 1.63923 0
645 1 Si 24.9063 24.785 1.61502 0
646 1 Si 1.81722 52.8727 1.63114 0
647 1 Si 5.08787 53.8324 1.63885 0
648 1 Si 7.68475 51.6518 1.63102 0
649 1 Si 106.597 55.2531 1.60114 0
650 1 Si 109.707 55.785 1.6043 0
651 1 Si 39.2025 23.9924 1.62972 0
652 1 Si 36.049 24.3605 1.63312 0
653 1 Si 200.103 54.0981 1.64221 0
654 1 Si 203.278 55.0734 1.63292 0
655 1 Si 44.4475 24.5286 1.61347 0
656 1 Si 41.6142 26.0284 1.6306 0
657 1 Si 121.727 55.5494 1.64645 0
658 1 Si 124.92 56.3141 1.65104 0
659 1 Si 47.3927 25.5582 1.62301 0
660 1 Si 56.3611 24.6359 1.62481 0
661 1 Si 53.404 25.987 1.61617 0
662 1 Si 63.0376 24.297 1.61981 0
663 1 Si 58.3086 27.2929 1.6335 0
664 1 Si 61.5004 27.2203 1.62001 0
665 1 Si 68.5104 24.0118 1.63958 0
666 1 Si 65.9209 25.7442 1.61862 0
667 1 Si 136.866 55.5318 1.63988 0
668 1 Si 140.198 55.8186 1.63441 0
669 1 Si 73.5527 24.0355 1.61163 0
670 1 Si 75.9234 26.0377 1.61223 0
671 1 Si 158.139 54.6223 1.63045 0
672 1 Si 161.237 55.1194 1.62024 0
673 1 Si 86.4979 26.1441 1.61524 0
674 1 Si 89.7623 25.5518 1.6478 0
675 1 Si 152.747 55.855 1.62291 0
676 1 Si 155.813 56.8778 1.6466 0
677 1 Si 170.758 55.6152 1.63151 0
678 1 Si 178.286 54.5355 1.63448 0
679 1 Si 172.931 57.8282 1.61441 0
680 1 Si 176.095 56.9587 1.61848 0
681 1 Si 167.622 56.1463 1.60295 0
682 1 Si 10.3953 26.7418 1.61159 0
683 1 Si 8.33067 29.3848 1.62605 0
684 1 Si 181.544 54.9135 1.61393 0
685 1 Si 16.2617 26.1372 1.62815 0
686 1 Si 13.5103 27.5517 1.61645 0
687 1 Si 19.2013 27.0744 1.60313 0
688 1 Si 194.457 55.5136 1.62751 0
689 1 Si 197.579 56.2696 1.61819 0
690 1 Si 31.1923 26.4155 1.63449 0
691 1 Si 34.4585 27.3349 1.63675 0
692 1 Si 104.344 57.4445 1.6266 0
693 1 Si 100.163 53.9899 1.63696 0
694 1 Si 101.151 57.1968 1.61517 0
695 1 Si 116.218 56.9654 1.65511 0
696 1 Si 110.808 58.7478 1.62872 0
697 1 Si 113.995 59.439 1.61979 0
698 1 Si 119.409 57.8969 1.63959 0
699 1 Si 71.0162 25.8065 1.63784 0
700 1 Si 131.549 57.7482 1.64202 0
701 1 Si 134.862 58.2433 1.64181 0
702 1 Si 126.045 59.4055 1.64854 0
703 1 Si 129.317 60.1627 1.64644 0
704 1 Si 81.5031 28.9044 1.62611 0
705 1 Si 74.5695 28.9694 1.6291 0
706 1 Si 79.3462 31.6536 1.61548 0
707 1 Si 76.0533 31.7494 1.61356 0
708 1 Si 147 57.2616 1.64356 0
709 1 Si 150.235 58.2788 1.64393 0
710 1 Si 84.7892 28.9523 1.61617 0
711 1 Si 162.156 58.0264 1.62454 0
712 1 Si 165.323 58.2943 1.63864 0
713 1 Si 94.9876 26.9813 1.61991 0
714 1 Si 96.9617 29.4008 1.62642 0
715 1 Si 13.9925 30.6104 1.62391 0
716 1 Si 10.834 31.5898 1.62627 0
717 1 Si 188.798 56.9346 1.65939 0
718 1 Si 192.152 57.8626 1.61697 0
719 1 Si 182.836 58.0227 1.64219 0
720 1 Si 186.113 59.0116 1.64186 0
721 1 Si 203.293 58.3716 1.61754 0
722 1 Si 1.78592 60.3578 1.62704 0
723 1 Si 4.96047 60.0864 1.62858 0
724 1 Si 6.0785 56.9996 1.61367 0
725 1 Si 25.6569 27.9161 1.62807 0
726 1 Si 28.7953 28.7984 1.61345 0
727 1 Si 108.456 61.0207 1.62515 0
728 1 Si 105.29 60.4779 1.63863 0
729 1 Si 41.5609 29.2348 1.62636 0
730 1 Si 35.8698 30.6476 1.63918 0
731 1 Si 39.1814 31.555 1.6453 0
732 1 Si 120.351 61.0664 1.63591 0
733 1 Si 123.641 61.6602 1.64397 0
734 1 Si 47.5179 28.6556 1.61808 0
735 1 Si 44.6769 29.9871 1.61056 0
736 1 Si 52.4998 29.2081 1.6293 0
737 1 Si 49.7811 30.8852 1.62039 0
738 1 Si 141.363 58.8699 1.61998 0
739 1 Si 136.101 61.3898 1.64113 0
740 1 Si 139.499 61.5785 1.61982 0
741 1 Si 57.2153 30.3384 1.60485 0
742 1 Si 54.3693 31.7263 1.61148 0
743 1 Si 144.574 59.4996 1.63097 0
744 1 Si 66.2499 28.9389 1.63865 0
745 1 Si 63.304 30.0602 1.62773 0
746 1 Si 71.3839 28.9289 1.62317 0
747 1 Si 68.8672 30.8576 1.63982 0
748 1 Si 156.578 60.0342 1.63469 0
749 1 Si 150.86 61.7239 1.63216 0
750 1 Si 154.24 62.4658 1.63258 0
751 1 Si 159.827 60.2041 1.61078 0
752 1 Si 91.7531 28.0793 1.62015 0
753 1 Si 86.6178 31.5439 1.63718 0
754 1 Si 89.8679 30.8252 1.63664 0
755 1 Si 171.724 60.8795 1.62108 0
756 1 Si 165.735 61.3236 1.63175 0
757 1 Si 168.764 62.3868 1.64835 0
758 1 Si 177.22 59.9213 1.62254 0
759 1 Si 174.736 62.065 1.62367 0
760 1 Si 180.443 60.3554 1.64565 0
761 1 Si 197.421 59.5357 1.59919 0
762 1 Si 194.169 60.5995 1.62519 0
763 1 Si 20.2599 29.97 1.64772 0
764 1 Si 17.2431 31.3416 1.62513 0
765 1 Si 200.608 60.3397 1.62519 0
766 1 Si 23.506 30.3925 1.63158 0
767 1 Si 114.812 62.681 1.6227 0
768 1 Si 109.25 64.0864 1.62297 0
769 1 Si 112.405 64.9542 1.63982 0
770 1 Si 28.3121 32.0958 1.6229 0
771 1 Si 34.1302 33.5499 1.63206 0
772 1 Si 30.843 34.126 1.62788 0
773 1 Si 118.032 63.4977 1.63781 0
774 1 Si 130.494 63.2562 1.64368 0
775 1 Si 133.828 63.957 1.62701 0
776 1 Si 124.749 64.7141 1.64062 0
777 1 Si 127.998 65.4666 1.64117 0
778 1 Si 145.015 62.7177 1.61083 0
779 1 Si 148.096 64.0472 1.62634 0
780 1 Si 79.5891 35.0365 1.62894 0
781 1 Si 85.3692 34.5856 1.61762 0
782 1 Si 82.5543 36.4766 1.6322 0
783 1 Si 162.552 61.8572 1.62625 0
784 1 Si 96.2365 32.5052 1.63319 0
785 1 Si 11.1617 34.7425 1.64365 0
786 1 Si 186.697 62.2981 1.6362 0
787 1 Si 192.87 63.7627 1.62702 0
788 1 Si 189.438 64.1487 1.61764 0
789 1 Si 181.071 63.5179 1.63569 0
790 1 Si 184.146 64.3765 1.62371 0
791 1 Si 17.4632 34.4217 1.62975 0
792 1 Si 14.3572 35.37 1.623 0
793 1 Si 25.1409 33.1964 1.62149 0
794 1 Si 201.624 63.3387 1.61779 0
795 1 Si 0.73074 63.3121 1.61484 0
796 1 Si 7.12396 62.6536 1.62107 0
797 1 Si 9.17788 57.8415 1.61938 0
798 1 Si 9.87844 60.9635 1.63192 0
799 1 Si 40.422 34.7296 1.6424 0
800 1 Si 35.5587 36.573 1.6184 0
801 1 Si 40.7873 38.1137 1.62573 0
802 1 Si 37.7796 39.1132 1.62488 0
803 1 Si 45.5606 32.916 1.62946 0
804 1 Si 43.4994 35.1591 1.62717 0
805 1 Si 48.558 33.8101 1.62865 0
806 1 Si 106.894 66.3244 1.62368 0
807 1 Si 103.547 65.8101 1.65375 0
808 1 Si 102.861 62.5785 1.61704 0
809 1 Si 119.12 66.6214 1.6192 0
810 1 Si 122.355 66.9181 1.63426 0
811 1 Si 57.8683 33.4196 1.63234 0
812 1 Si 54.9989 34.8159 1.61456 0
813 1 Si 63.3689 33.3944 1.6376 0
814 1 Si 60.5762 34.9745 1.62702 0
815 1 Si 141.891 63.9222 1.62268 0
816 1 Si 68.8872 34.1301 1.63242 0
817 1 Si 65.9571 35.5179 1.63535 0
818 1 Si 134.63 67.2377 1.64454 0
819 1 Si 141.356 67.1586 1.62021 0
820 1 Si 137.987 68.1316 1.64437 0
821 1 Si 74.4692 34.6308 1.60628 0
822 1 Si 71.5292 36.0352 1.64165 0
823 1 Si 155.797 65.3993 1.61595 0
824 1 Si 161.928 64.8183 1.62804 0
825 1 Si 158.947 65.787 1.60415 0
826 1 Si 76.7334 36.8957 1.60017 0
827 1 Si 147.472 67.4777 1.62118 0
828 1 Si 155.77 68.6636 1.62528 0
829 1 Si 149.924 69.6237 1.61908 0
830 1 Si 153.033 70.0716 1.62366 0
831 1 Si 90.9228 33.7858 1.62945 0
832 1 Si 88.3579 35.7099 1.62028 0
833 1 Si 175.527 65.1521 1.62665 0
834 1 Si 178.743 65.7804 1.62549 0
835 1 Si 93.9588 34.6977 1.6284 0
836 1 Si 164.802 66.235 1.63317 0
837 1 Si 167.902 65.4557 1.62917 0
838 1 Si 194.757 66.687 1.61898 0
839 1 Si 200.693 66.3484 1.63452 0
840 1 Si 197.936 67.9661 1.62134 0
841 1 Si 20.1965 36.1768 1.61516 0
842 1 Si 15.0555 38.3711 1.63705 0
843 1 Si 18.278 38.7722 1.63659 0
844 1 Si 23.5426 36.1723 1.63701 0
845 1 Si 112.415 68.2013 1.61687 0
846 1 Si 117.937 69.7443 1.62795 0
847 1 Si 114.751 70.6357 1.6249 0
848 1 Si 109.157 68.6721 1.61895 0
849 1 Si 30.299 37.3115 1.60011 0
850 1 Si 33.1925 38.5713 1.6082 0
851 1 Si 128.72 68.6545 1.64328 0
852 1 Si 131.948 69.4624 1.64347 0
853 1 Si 144.326 69.0192 1.6163 0
854 1 Si 160.364 68.5618 1.62277 0
855 1 Si 163.434 69.0168 1.61721 0
856 1 Si 74.9074 39.7793 1.62961 0
857 1 Si 82.6241 39.8621 1.63807 0
858 1 Si 79.9614 42.2836 1.6355 0
859 1 Si 76.4176 42.7441 1.62438 0
860 1 Si 94.7609 37.8634 1.61825 0
861 1 Si 97.9804 38.9067 1.63749 0