ITEM: TIMESTEP
1423
ITEM: NUMBER OF ATOMS
15444
ITEM: BOX BOUNDS pp pp pp
0.0000000000000000e+00 2.0329892971037154e+02
0.0000000000000000e+00 1.7676589447723856e+02
-1.0000000000000000e+02 1.0000000000000000e+02
ITEM: ATOMS id type element x y z v_uncoordination
1 1 Si 106.938 41.7079 1.65339 0
2 1 Si 104.967 39.274 1.63777 0
3 1 Si 109.567 39.8776 1.63894 0
4 1 Si 106.355 36.4431 1.63212 0
5 1 Si 109.391 36.7401 1.62938 0
6 1 Si 105.787 44.7764 1.62352 0
7 1 Si 101.865 39.659 1.62157 0
8 1 Si 103.245 47.01 1.62278 0
9 1 Si 99.9902 42.5147 1.60604 0
10 1 Si 100.053 46.007 1.62423 0
11 1 Si 112.708 39.7261 1.6202 0
12 1 Si 113.376 42.8569 1.62797 0
13 1 Si 111.389 45.4779 1.61299 0
14 1 Si 108.365 46.5468 1.617 0
15 1 Si 133.068 60.8629 1.61072 0
16 1 Si 130.095 59.7798 1.62433 0
17 1 Si 136.146 59.9699 1.62649 0
18 1 Si 131.604 54.2968 1.64778 0
19 1 Si 134.8 54.7096 1.61971 0
20 1 Si 129.432 56.6883 1.6216 0
21 1 Si 137.058 56.9804 1.62657 0
22 1 Si 133.274 64.0067 1.62332 0
23 1 Si 127.444 61.6599 1.63648 0
24 1 Si 127.783 64.8265 1.62383 0
25 1 Si 130.792 65.9288 1.62698 0
26 1 Si 138.265 62.3769 1.61633 0
27 1 Si 136.293 64.8818 1.632 0
28 1 Si 106.251 3.08631 1.6307 0
29 1 Si 109.233 1.47316 1.62677 0
30 1 Si 105.222 6.46248 1.62698 0
31 1 Si 112.92 6.18296 1.62222 0
32 1 Si 112.211 2.95386 1.62115 0
33 1 Si 107.507 8.95998 1.62077 0
34 1 Si 110.943 8.90546 1.63868 0
35 1 Si 104.205 0.467765 1.6254 0
36 1 Si 107.075 172.421 1.60736 0
37 1 Si 104.288 173.888 1.63065 0
38 1 Si 109.3 174.872 1.61526 0
39 1 Si 102.062 7.95505 1.61691 0
40 1 Si 98.7959 2.93915 1.62536 0
41 1 Si 98.9518 6.36618 1.6355 0
42 1 Si 101.085 0.692789 1.63609 0
43 1 Si 117.621 3.35246 1.62492 0
44 1 Si 116.247 6.32268 1.61401 0
45 1 Si 115.047 1.21898 1.61703 0
46 1 Si 120.987 3.16186 1.6295 0
47 1 Si 123.35 5.74443 1.63141 0
48 1 Si 118.246 8.93298 1.63712 0
49 1 Si 121.714 8.71261 1.62953 0
50 1 Si 122.05 0.04462 1.65674 0
51 1 Si 117.298 172.654 1.62768 0
52 1 Si 114.776 174.67 1.632 0
53 1 Si 120.454 173.841 1.62877 0
54 1 Si 127.665 2.33682 1.63454 0
55 1 Si 126.995 5.45431 1.63701 0
56 1 Si 125.3 0.14796 1.64301 0
57 1 Si 130.667 1.12705 1.63132 0
58 1 Si 133.683 2.23986 1.61751 0
59 1 Si 133.693 5.58825 1.6238 0
60 1 Si 130.304 6.95554 1.62567 0
61 1 Si 130.138 174.789 1.63095 0
62 1 Si 127.008 174.285 1.63576 0
63 1 Si 136.151 176.705 1.61977 0
64 1 Si 139.438 4.5283 1.62506 0
65 1 Si 137.022 6.78172 1.64749 0
66 1 Si 139.144 1.22721 1.6412 0
67 1 Si 132.364 172.564 1.61721 0
68 1 Si 135.566 173.394 1.62858 0
69 1 Si 142.606 5.25908 1.63179 0
70 1 Si 144.287 8.06286 1.62992 0
71 1 Si 138.546 9.90462 1.63382 0
72 1 Si 142.046 10.5626 1.64265 0
73 1 Si 143.709 2.29151 1.60908 0
74 1 Si 141.973 176.375 1.60751 0
75 1 Si 149.039 2.80074 1.61217 0
76 1 Si 146.521 1.08007 1.6246 0
77 1 Si 149.867 5.81627 1.63708 0
78 1 Si 147.712 8.37289 1.63129 0
79 1 Si 150.964 0.30044 1.61577 0
80 1 Si 146.91 174.722 1.6087 0
81 1 Si 149.966 174.05 1.64844 0
82 1 Si 152.972 4.66954 1.62716 0
83 1 Si 153.802 1.47722 1.63692 0
84 1 Si 163.949 5.15529 1.61933 0
85 1 Si 160.819 5.9422 1.62535 0
86 1 Si 165.454 7.95928 1.62936 0
87 1 Si 160.34 9.15254 1.62362 0
88 1 Si 163.314 10.2855 1.635 0
89 1 Si 158.247 4.05388 1.62558 0
90 1 Si 158.888 0.578212 1.61954 0
91 1 Si 165.797 2.56443 1.63283 0
92 1 Si 161.539 175.119 1.63628 0
93 1 Si 164.838 176.233 1.62517 0
94 1 Si 155.607 6.40755 1.62539 0
95 1 Si 155.973 175.833 1.64322 0
96 1 Si 170.444 6.00921 1.63029 0
97 1 Si 168.998 3.12933 1.63102 0
98 1 Si 168.559 8.62956 1.63018 0
99 1 Si 175.196 3.55326 1.63447 0
100 1 Si 178.425 3.45225 1.62682 0
101 1 Si 173.66 6.44352 1.62676 0
102 1 Si 180.035 6.48654 1.62976 0
103 1 Si 174.933 9.56041 1.63629 0
104 1 Si 178.314 9.44026 1.6194 0
105 1 Si 173.775 0.573863 1.62819 0
106 1 Si 178.786 0.0840436 1.62114 0
107 1 Si 176.017 174.988 1.61867 0
108 1 Si 170.531 0.343235 1.62498 0
109 1 Si 185.152 3.92209 1.63003 0
110 1 Si 183.385 6.73825 1.62855 0
111 1 Si 184.298 0.725144 1.61799 0
112 1 Si 181.724 175.453 1.62631 0
113 1 Si 188.389 4.41355 1.62475 0
114 1 Si 189.656 7.335 1.63209 0
115 1 Si 184.999 9.72526 1.62947 0
116 1 Si 188.249 10.2335 1.6175 0
117 1 Si 190.404 1.94146 1.63295 0
118 1 Si 186.558 175.205 1.61552 0
119 1 Si 189.651 175.639 1.61775 0
120 1 Si 195.541 6.57803 1.62747 0
121 1 Si 192.73 7.92322 1.61449 0
122 1 Si 197.922 8.65408 1.6124 0
123 1 Si 193.463 10.9778 1.60594 0
124 1 Si 196.554 11.5157 1.63711 0
125 1 Si 195.952 3.53053 1.61917 0
126 1 Si 193.503 1.63649 1.61725 0
127 1 Si 198.82 2.16859 1.60695 0
128 1 Si 194.788 175.522 1.60263 0
129 1 Si 197.951 175.768 1.64057 0
130 1 Si 201.015 7.9466 1.63051 0
131 1 Si 201.19 4.51572 1.62889 0
132 1 Si 105.876 11.8871 1.61259 0
133 1 Si 102.51 11.3559 1.62322 0
134 1 Si 112.812 11.766 1.63949 0
135 1 Si 116.263 11.6512 1.64471 0
136 1 Si 130.098 10.2682 1.63149 0
137 1 Si 123.57 11.5101 1.63771 0
138 1 Si 127.02 11.7773 1.61531 0
139 1 Si 132.908 12.2545 1.61426 0
140 1 Si 136.382 12.4986 1.64312 0
141 1 Si 154.869 9.80045 1.61513 0
142 1 Si 149.096 11.4208 1.61388 0
143 1 Si 152.346 12.1297 1.62793 0
144 1 Si 157.821 11.1749 1.63304 0
145 1 Si 169.554 11.764 1.63601 0
146 1 Si 164.142 13.3425 1.63264 0
147 1 Si 167.31 14.2274 1.62648 0
148 1 Si 172.832 12.3402 1.63354 0
149 1 Si 180.062 12.2153 1.62284 0
150 1 Si 183.292 12.4373 1.60927 0
151 1 Si 190.71 12.5105 1.60047 0
152 1 Si 202.74 10.9048 1.63552 0
153 1 Si 198.074 14.2962 1.62977 0
154 1 Si 201.379 14.0704 1.62935 0
155 1 Si 3.3939 4.82083 1.63008 0
156 1 Si 0.69636 2.97552 1.62261 0
157 1 Si 2.71197 10.654 1.61521 0
158 1 Si 4.44717 7.84939 1.62961 0
159 1 Si 5.62743 2.62879 1.6233 0
160 1 Si 4.28202 176.573 1.61677 0
161 1 Si 1.09489 176.45 1.63778 0
162 1 Si 107.751 14.7283 1.63694 0
163 1 Si 111.161 14.7555 1.63842 0
164 1 Si 118.113 14.3979 1.6497 0
165 1 Si 121.513 14.2152 1.6456 0
166 1 Si 128.143 14.8098 1.62698 0
167 1 Si 131.345 15.1028 1.63395 0
168 1 Si 143.671 13.6052 1.63973 0
169 1 Si 147.186 14.1498 1.61414 0
170 1 Si 158.333 14.4126 1.62497 0
171 1 Si 161.525 15.2689 1.62973 0
172 1 Si 173.419 15.7088 1.62456 0
173 1 Si 179.118 15.2522 1.62276 0
174 1 Si 176.428 16.8845 1.63044 0
175 1 Si 192.751 15.2469 1.6178 0
176 1 Si 184.194 15.5099 1.63787 0
177 1 Si 187.038 16.8298 1.62208 0
178 1 Si 190.147 16.9096 1.63259 0
179 1 Si 195.904 16.7431 1.62098 0
180 1 Si 106.257 17.6478 1.62329 0
181 1 Si 103.235 18.5877 1.61467 0
182 1 Si 100.137 13.8654 1.6211 0
183 1 Si 100.491 17.1334 1.61111 0
184 1 Si 112.981 17.6713 1.64993 0
185 1 Si 116.323 17.2542 1.63747 0
186 1 Si 123.005 17.1164 1.63881 0
187 1 Si 126.244 17.3783 1.63676 0
188 1 Si 137.98 15.5251 1.64484 0
189 1 Si 132.741 18.0212 1.64433 0
190 1 Si 135.997 18.2087 1.63429 0
191 1 Si 141.363 16.0639 1.63279 0
192 1 Si 152.712 15.4823 1.6091 0
193 1 Si 149.542 16.7183 1.62159 0
194 1 Si 155.876 16.7167 1.63756 0
195 1 Si 168.067 17.4949 1.62471 0
196 1 Si 162.547 18.2828 1.61995 0
197 1 Si 165.542 19.629 1.622 0
198 1 Si 171.27 18.3267 1.62319 0
199 1 Si 181.586 17.2712 1.61402 0
200 1 Si 187.669 19.8971 1.62579 0
201 1 Si 190.809 19.9728 1.5909 0
202 1 Si 203.099 16.993 1.63201 0
203 1 Si 3.26113 16.6488 1.64319 0
204 1 Si 4.54812 13.3796 1.61231 0
205 1 Si 106.576 20.8257 1.6297 0
206 1 Si 111.923 20.9821 1.62646 0
207 1 Si 109.103 22.6922 1.62314 0
208 1 Si 118.024 20.042 1.64234 0
209 1 Si 121.214 19.8218 1.62728 0
210 1 Si 127.704 20.2604 1.63331 0
211 1 Si 130.899 20.7379 1.64596 0
212 1 Si 142.453 19.1999 1.6352 0
213 1 Si 148.788 20.0256 1.62893 0
214 1 Si 145.482 20.5575 1.60489 0
215 1 Si 157.065 19.8707 1.61795 0
216 1 Si 160.228 20.3713 1.61263 0
217 1 Si 177.574 19.9074 1.61572 0
218 1 Si 172.352 21.4938 1.62625 0
219 1 Si 175.506 22.2421 1.62257 0
220 1 Si 180.746 20.3046 1.63093 0
221 1 Si 182.674 22.8313 1.62438 0
222 1 Si 185.841 22.4333 1.61023 0
223 1 Si 197.632 19.7329 1.65334 0
224 1 Si 201.144 19.9007 1.63699 0
225 1 Si 103.556 21.7251 1.61006 0
226 1 Si 113.846 23.6779 1.6181 0
227 1 Si 116.919 23.0987 1.62283 0
228 1 Si 122.61 22.6433 1.62602 0
229 1 Si 125.753 22.7458 1.63904 0
230 1 Si 137.067 21.3254 1.62796 0
231 1 Si 131.945 23.876 1.64649 0
232 1 Si 135.26 24.1067 1.62248 0
233 1 Si 140.294 21.6541 1.61441 0
234 1 Si 150.694 23.001 1.60424 0
235 1 Si 156.91 23.1847 1.6353 0
236 1 Si 153.948 24.5481 1.61707 0
237 1 Si 165.353 22.9471 1.63361 0
238 1 Si 170.977 24.4714 1.62907 0
239 1 Si 167.786 25.4131 1.62847 0
240 1 Si 192.446 22.685 1.63113 0
241 1 Si 195.757 22.5561 1.6246 0
242 1 Si 202.425 23.0937 1.61704 0
243 1 Si 2.11474 24.6799 1.62787 0
244 1 Si 5.01504 22.9722 1.61794 0
245 1 Si 5.29128 19.5089 1.62144 0
246 1 Si 108.758 25.9655 1.61452 0
247 1 Si 113.995 27.0074 1.61521 0
248 1 Si 111.114 28.2251 1.62187 0
249 1 Si 118.351 26.0409 1.62042 0
250 1 Si 121.467 25.6162 1.62696 0
251 1 Si 126.545 25.7811 1.6221 0
252 1 Si 129.682 26.3574 1.63538 0
253 1 Si 145.25 23.7879 1.6087 0
254 1 Si 142.052 24.3916 1.625 0
255 1 Si 148.203 25.2516 1.62654 0
256 1 Si 162.069 23.0084 1.60973 0
257 1 Si 159.757 25.1196 1.63898 0
258 1 Si 176.242 25.3084 1.61133 0
259 1 Si 173.356 26.6416 1.6214 0
260 1 Si 181.787 25.9799 1.62866 0
261 1 Si 178.724 27.278 1.62896 0
262 1 Si 187.169 25.3203 1.61543 0
263 1 Si 190.426 25.3416 1.63636 0
264 1 Si 197.058 25.5978 1.62802 0
265 1 Si 200.351 25.6872 1.62972 0
266 1 Si 106.222 27.8908 1.64772 0
267 1 Si 103.025 27.2419 1.64479 0
268 1 Si 101.553 24.2099 1.63275 0
269 1 Si 116.739 28.8922 1.62397 0
270 1 Si 123.914 27.6428 1.62743 0
271 1 Si 137.141 26.8689 1.62268 0
272 1 Si 140.515 27.2023 1.62508 0
273 1 Si 148.617 28.6028 1.6372 0
274 1 Si 154.855 27.8889 1.61618 0
275 1 Si 151.94 29.6625 1.61649 0
276 1 Si 161.117 28.2128 1.62038 0
277 1 Si 167.519 28.8623 1.6231 0
278 1 Si 164.249 29.9138 1.63686 0
279 1 Si 184.684 27.4557 1.62194 0
280 1 Si 191.572 28.3507 1.63029 0
281 1 Si 195.034 28.295 1.62474 0
282 1 Si 201.844 28.5995 1.62432 0
283 1 Si 1.81669 28.1194 1.61409 0
284 1 Si 7.99422 24.7048 1.61903 0
285 1 Si 8.57908 19.1242 1.62321 0
286 1 Si 10.1028 22.1425 1.61488 0
287 1 Si 107.397 30.8832 1.62627 0
288 1 Si 110.539 31.3785 1.61877 0
289 1 Si 123.872 30.8496 1.63687 0
290 1 Si 117.941 32.1647 1.62724 0
291 1 Si 121.194 32.831 1.61949 0
292 1 Si 129.623 29.6331 1.63956 0
293 1 Si 127.016 31.8025 1.63895 0
294 1 Si 135.65 29.7079 1.62419 0
295 1 Si 132.599 30.8071 1.61986 0
296 1 Si 142.529 29.86 1.62335 0
297 1 Si 137.579 32.248 1.6173 0
298 1 Si 140.714 32.512 1.61649 0
299 1 Si 145.735 30.6511 1.62866 0
300 1 Si 158.033 29.5351 1.63138 0
301 1 Si 173.522 29.8289 1.61786 0
302 1 Si 170.37 31.0933 1.63481 0
303 1 Si 176.925 30.1355 1.6245 0
304 1 Si 185.239 30.6647 1.63346 0
305 1 Si 178.722 32.907 1.6221 0
306 1 Si 182.242 32.812 1.61565 0
307 1 Si 188.873 30.6197 1.61986 0
308 1 Si 196.649 31.2132 1.62448 0
309 1 Si 200.184 31.5235 1.64206 0
310 1 Si 105.611 33.4355 1.64338 0
311 1 Si 102.535 33.2469 1.62013 0
312 1 Si 101.537 30.1343 1.63358 0
313 1 Si 111.532 34.4281 1.62716 0
314 1 Si 113.861 36.6222 1.62883 0
315 1 Si 116.838 35.3923 1.61428 0
316 1 Si 132.549 34.006 1.62487 0
317 1 Si 135.624 34.7309 1.62134 0
318 1 Si 152.546 32.925 1.61985 0
319 1 Si 144.925 33.9279 1.62261 0
320 1 Si 150.266 35.1655 1.59986 0
321 1 Si 147.236 35.9969 1.62761 0
322 1 Si 158.409 32.8218 1.63466 0
323 1 Si 155.522 34.3518 1.62553 0
324 1 Si 164.256 33.2568 1.63095 0
325 1 Si 161.25 34.5961 1.63512 0
326 1 Si 170.084 34.5041 1.61186 0
327 1 Si 166.904 35.2427 1.64293 0
328 1 Si 190.564 33.3579 1.62825 0
329 1 Si 193.997 33.3255 1.62909 0
330 1 Si 3.8347 30.9436 1.63747 0
331 1 Si 202.377 34.2763 1.63036 0
332 1 Si 2.61803 34.1547 1.62537 0
333 1 Si 7.19673 30.7862 1.62523 0
334 1 Si 9.13783 28.0207 1.62848 0
335 1 Si 127.166 35.1151 1.64547 0
336 1 Si 121.695 36.0918 1.62414 0
337 1 Si 124.694 37.362 1.64819 0
338 1 Si 130.205 36.2129 1.63004 0
339 1 Si 141.986 35.4419 1.59551 0
340 1 Si 177.189 35.9706 1.59656 0
341 1 Si 171.543 37.6145 1.62849 0
342 1 Si 174.782 38.3771 1.62213 0
343 1 Si 182.638 36.0893 1.6267 0
344 1 Si 179.831 37.8025 1.63204 0
345 1 Si 188.618 36.086 1.61089 0
346 1 Si 185.542 37.6381 1.6431 0
347 1 Si 194.638 36.4497 1.62498 0
348 1 Si 191.503 37.5923 1.62153 0
349 1 Si 201.137 37.4128 1.63682 0
350 1 Si 197.708 37.9042 1.65146 0
351 1 Si 101.434 36.3528 1.62538 0
352 1 Si 119.01 37.9134 1.61924 0
353 1 Si 136.623 37.6696 1.62071 0
354 1 Si 130.954 39.4273 1.6358 0
355 1 Si 134.29 39.9179 1.61281 0
356 1 Si 139.875 37.9847 1.62367 0
357 1 Si 150.712 38.283 1.60479 0
358 1 Si 147.704 39.075 1.61593 0
359 1 Si 155.75 37.557 1.63911 0
360 1 Si 153.447 39.7218 1.62248 0
361 1 Si 161.15 37.8655 1.6368 0
362 1 Si 158.345 39.354 1.63324 0
363 1 Si 166.579 38.4589 1.63731 0
364 1 Si 163.672 39.8606 1.64802 0
365 1 Si 169.315 40.1691 1.60533 0
366 1 Si 5.0197 36.8812 1.63232 0
367 1 Si 0.302988 39.9102 1.62461 0
368 1 Si 3.73069 39.9737 1.62278 0
369 1 Si 125.029 40.7216 1.64812 0
370 1 Si 119.07 41.2877 1.63724 0
371 1 Si 122.069 42.7254 1.61545 0
372 1 Si 128.348 41.6006 1.62995 0
373 1 Si 140.189 41.1634 1.62697 0
374 1 Si 146.65 42.0141 1.6313 0
375 1 Si 143.319 42.4238 1.61058 0
376 1 Si 8.81994 2.7469 1.63666 0
377 1 Si 9.89495 5.79275 1.63675 0
378 1 Si 7.64786 8.27249 1.61376 0
379 1 Si 10.0662 176.551 1.6249 0
380 1 Si 7.11902 175.1 1.62077 0
381 1 Si 15.8072 3.75188 1.63667 0
382 1 Si 13.1177 6.32166 1.62967 0
383 1 Si 16.0415 0.294625 1.62869 0
384 1 Si 13.1843 175.259 1.62925 0
385 1 Si 19.0885 4.40319 1.61879 0
386 1 Si 20.5142 7.24608 1.63757 0
387 1 Si 12.4387 9.80183 1.62515 0
388 1 Si 18.2066 9.45189 1.60822 0
389 1 Si 15.3481 10.8816 1.63368 0
390 1 Si 22.1011 3.04912 1.62063 0
391 1 Si 22.2605 176.716 1.61401 0
392 1 Si 19.171 175.56 1.60646 0
393 1 Si 25.066 4.45328 1.62067 0
394 1 Si 23.8692 7.37023 1.615 0
395 1 Si 179.33 41.0549 1.62615 0
396 1 Si 176.024 41.5715 1.62262 0
397 1 Si 28.3051 4.00089 1.63927 0
398 1 Si 31.0074 5.78919 1.60869 0
399 1 Si 26.9605 8.80136 1.61454 0
400 1 Si 30.3656 8.92397 1.6111 0
401 1 Si 29.6957 1.17969 1.61763 0
402 1 Si 25.105 175.116 1.61843 0
403 1 Si 28.3236 175.157 1.63189 0
404 1 Si 33.7492 3.95287 1.63397 0
405 1 Si 32.8666 0.884196 1.6098 0
406 1 Si 185.075 40.992 1.6323 0
407 1 Si 182.185 42.8824 1.63172 0
408 1 Si 39.7828 2.67345 1.6162 0
409 1 Si 36.8603 4.91805 1.61406 0
410 1 Si 42.6037 4.45564 1.62431 0
411 1 Si 41.8346 7.6901 1.60965 0
412 1 Si 36.1514 8.42753 1.62476 0
413 1 Si 39.1734 9.63142 1.63048 0
414 1 Si 40.2643 175.987 1.62647 0
415 1 Si 37.3674 174.046 1.61014 0
416 1 Si 33.8708 174.576 1.65752 0
417 1 Si 45.8136 3.53632 1.62485 0
418 1 Si 47.8243 5.96603 1.62163 0
419 1 Si 47.2438 9.06538 1.63534 0
420 1 Si 44.1831 9.90733 1.62407 0
421 1 Si 48.626 1.85365 1.63489 0
422 1 Si 50.2204 175.783 1.62547 0
423 1 Si 43.5805 174.322 1.61165 0
424 1 Si 47.3067 173.888 1.60656 0
425 1 Si 190.803 40.6575 1.63202 0
426 1 Si 188.056 42.3836 1.63021 0
427 1 Si 50.5126 4.38089 1.59963 0
428 1 Si 53.2 6.03366 1.63539 0
429 1 Si 52.5288 9.37678 1.64051 0
430 1 Si 49.6568 11.1929 1.62942 0
431 1 Si 55.996 4.18074 1.62285 0
432 1 Si 56.6135 0.840185 1.65191 0
433 1 Si 54.1636 175.266 1.62968 0
434 1 Si 196.639 40.8628 1.59998 0
435 1 Si 193.677 41.8567 1.61046 0
436 1 Si 58.6216 6.16046 1.63786 0
437 1 Si 58.1567 9.41213 1.63365 0
438 1 Si 55.1414 11.2892 1.64329 0
439 1 Si 62.3277 1.87222 1.61515 0
440 1 Si 61.7292 4.97654 1.62351 0
441 1 Si 59.8929 176.555 1.62276 0
442 1 Si 9.16828 33.4771 1.61647 0
443 1 Si 8.51604 36.7489 1.63595 0
444 1 Si 65.4812 1.00055 1.60919 0
445 1 Si 67.6299 3.52039 1.62897 0
446 1 Si 64.9901 5.72382 1.61489 0
447 1 Si 65.4607 174.498 1.6198 0
448 1 Si 62.0538 173.973 1.61177 0
449 1 Si 71.3003 3.40871 1.64574 0
450 1 Si 72.9746 6.55465 1.63294 0
451 1 Si 64.8301 8.91443 1.63025 0
452 1 Si 67.9732 10.1928 1.61463 0
453 1 Si 71.2907 9.60283 1.63663 0
454 1 Si 73.2261 0.205343 1.62862 0
455 1 Si 68.4268 172.775 1.63522 0
456 1 Si 71.6538 173.964 1.62895 0
457 1 Si 116.513 43.5173 1.6134 0
458 1 Si 78.971 4.76811 1.64055 0
459 1 Si 76.4124 6.88684 1.63158 0
460 1 Si 78.8648 1.6098 1.63093 0
461 1 Si 76.6658 176.138 1.63959 0
462 1 Si 82.2217 4.76904 1.6093 0
463 1 Si 84.686 6.67096 1.63654 0
464 1 Si 84.0528 9.66448 1.62043 0
465 1 Si 77.805 9.83918 1.62629 0
466 1 Si 80.947 10.6233 1.62193 0
467 1 Si 84.0644 2.16468 1.63174 0
468 1 Si 81.7137 0.210586 1.62527 0
469 1 Si 87.7413 5.94068 1.60361 0
470 1 Si 89.0635 3.16166 1.61258 0
471 1 Si 86.9614 0.931199 1.63694 0
472 1 Si 136.889 41.9562 1.62136 0
473 1 Si 129.232 44.7924 1.64477 0
474 1 Si 135.651 44.8642 1.62949 0
475 1 Si 132.438 45.699 1.62401 0
476 1 Si 90.2806 7.74614 1.59012 0
477 1 Si 87.3191 9.18584 1.57328 0
478 1 Si 92.2039 3.29937 1.62112 0
479 1 Si 93.2491 0.31427 1.62798 0
480 1 Si 91.2457 174.413 1.62908 0
481 1 Si 87.9849 174.667 1.63149 0
482 1 Si 93.1723 6.35303 1.6452 0
483 1 Si 96.4357 0.610778 1.60756 0
484 1 Si 95.9394 8.07429 1.62705 0
485 1 Si 100.157 174.399 1.62635 0
486 1 Si 97.1002 174.237 1.62448 0
487 1 Si 154.444 42.7708 1.63108 0
488 1 Si 149.1 44.3425 1.61364 0
489 1 Si 152.413 45.3125 1.63461 0
490 1 Si 157.665 42.5169 1.62526 0
491 1 Si 163.094 43.063 1.61745 0
492 1 Si 160.158 44.5632 1.61641 0
493 1 Si 7.37989 11.5784 1.62602 0
494 1 Si 10.3426 12.7001 1.63058 0
495 1 Si 168.668 43.518 1.63953 0
496 1 Si 165.586 45.1013 1.61303 0
497 1 Si 19.958 11.9671 1.62593 0
498 1 Si 25.9313 11.6366 1.65594 0
499 1 Si 22.9555 12.277 1.60528 0
500 1 Si 174.474 44.6184 1.61029 0
501 1 Si 171.31 45.3576 1.60938 0
502 1 Si 33.2254 10.7148 1.62621 0
503 1 Si 182.538 46.3733 1.62677 0
504 1 Si 174.525 47.9031 1.62655 0
505 1 Si 180.081 49.006 1.61376 0
506 1 Si 176.719 50.2972 1.62574 0
507 1 Si 203.054 43.1731 1.60781 0
508 1 Si 197.261 43.9186 1.6317 0
509 1 Si 200.222 44.8918 1.6155 0
510 1 Si 43.1943 12.9394 1.62094 0
511 1 Si 39.9299 12.8294 1.62007 0
512 1 Si 2.54211 44.9819 1.60891 0
513 1 Si 5.30082 43.1146 1.62502 0
514 1 Si 61.5164 9.99002 1.62018 0
515 1 Si 61.3454 13.0762 1.64492 0
516 1 Si 67.1885 13.2664 1.62102 0
517 1 Si 64.2623 14.1788 1.6349 0
518 1 Si 72.952 12.5654 1.6353 0
519 1 Si 76.1377 12.6153 1.62886 0
520 1 Si 120.962 46.0632 1.63288 0
521 1 Si 126.874 47.1248 1.6175 0
522 1 Si 123.661 47.6864 1.62958 0
523 1 Si 88.8279 11.8134 1.58165 0
524 1 Si 80.7586 13.7909 1.61523 0
525 1 Si 86.2793 13.6487 1.56823 0
526 1 Si 83.5413 15.1855 1.64467 0
527 1 Si 143.701 45.5898 1.6164 0
528 1 Si 146.796 46.5587 1.62369 0
529 1 Si 91.908 12.1998 1.61663 0
530 1 Si 94.9935 11.3356 1.6426 0
531 1 Si 138.083 46.9993 1.60833 0
532 1 Si 141.239 47.6124 1.6416 0
533 1 Si 15.0589 14.0299 1.62848 0
534 1 Si 18.0891 14.3612 1.63643 0
535 1 Si 188.669 45.6197 1.63214 0
536 1 Si 185.942 47.4588 1.62313 0
537 1 Si 27.4211 14.3133 1.60853 0
538 1 Si 24.4447 14.9561 1.61424 0
539 1 Si 32.6067 14.2265 1.64196 0
540 1 Si 29.8139 16.2545 1.63603 0
541 1 Si 194.276 44.9061 1.61956 0
542 1 Si 191.826 46.9127 1.61593 0
543 1 Si 48.6604 14.4837 1.62701 0
544 1 Si 45.3819 15.4011 1.63449 0
545 1 Si 115.655 46.7671 1.62679 0
546 1 Si 112.728 48.3877 1.59657 0
547 1 Si 53.8301 14.5815 1.61827 0
548 1 Si 51.0508 16.794 1.63622 0
549 1 Si 118.249 48.5374 1.63039 0
550 1 Si 58.9872 15.1113 1.6116 0
551 1 Si 56.2227 16.5666 1.65034 0
552 1 Si 71.9991 15.7214 1.6208 0
553 1 Si 68.8996 15.8721 1.62228 0
554 1 Si 132.92 48.8166 1.62666 0
555 1 Si 127.752 50.2179 1.63529 0
556 1 Si 130.762 51.1747 1.62076 0
557 1 Si 136.007 49.366 1.62493 0
558 1 Si 77.9258 15.3017 1.64309 0
559 1 Si 89.4314 14.2131 1.59111 0
560 1 Si 153.772 48.5184 1.63034 0
561 1 Si 147.764 49.5864 1.62841 0
562 1 Si 150.971 50.3785 1.62079 0
563 1 Si 160.208 47.8637 1.61922 0
564 1 Si 157.268 49.9694 1.64911 0
565 1 Si 96.8262 14.0678 1.61347 0
566 1 Si 163.685 47.986 1.62185 0
567 1 Si 171.318 48.5868 1.60706 0
568 1 Si 165.379 50.8086 1.62207 0
569 1 Si 168.769 50.8379 1.61969 0
570 1 Si 10.2203 16.1594 1.61735 0
571 1 Si 13.3422 16.6299 1.6305 0
572 1 Si 19.6314 16.925 1.6306 0
573 1 Si 22.6493 17.308 1.62159 0
574 1 Si 187.572 50.518 1.62518 0
575 1 Si 181.748 51.8292 1.61712 0
576 1 Si 184.974 52.408 1.61676 0
577 1 Si 2.13188 48.3117 1.64867 0
578 1 Si 199.4 48.0016 1.63033 0
579 1 Si 202.266 49.4347 1.6066 0
580 1 Si 38.2339 15.6251 1.62948 0
581 1 Si 34.9627 16.4746 1.62597 0
582 1 Si 4.67119 50.5744 1.62033 0
583 1 Si 8.56233 44.6565 1.61781 0
584 1 Si 10.0476 47.9294 1.62598 0
585 1 Si 8.23546 50.8001 1.6228 0
586 1 Si 107.498 49.6724 1.61265 0
587 1 Si 104.237 50.2577 1.62994 0
588 1 Si 110.503 50.9638 1.63857 0
589 1 Si 43.7854 18.3486 1.63218 0
590 1 Si 40.4902 17.9842 1.61455 0
591 1 Si 122.519 50.669 1.60398 0
592 1 Si 125.277 52.1599 1.60491 0
593 1 Si 60.7087 17.621 1.62533 0
594 1 Si 63.6546 17.1499 1.62755 0
595 1 Si 77.4311 18.5933 1.61404 0
596 1 Si 72.2876 18.9955 1.63068 0
597 1 Si 74.8331 20.8517 1.6186 0
598 1 Si 142.166 50.6921 1.63219 0
599 1 Si 136.856 52.3211 1.62716 0
600 1 Si 139.932 52.9236 1.63278 0
601 1 Si 145.215 51.6057 1.63936 0
602 1 Si 89.5258 17.288 1.61932 0
603 1 Si 83.2765 18.3838 1.64343 0
604 1 Si 86.5618 18.7234 1.62422 0
605 1 Si 92.5375 18.5186 1.62899 0
606 1 Si 95.6297 17.2555 1.63684 0
607 1 Si 193.424 49.8749 1.62088 0
608 1 Si 190.876 52.0459 1.62163 0
609 1 Si 14.7904 19.4326 1.61941 0
610 1 Si 17.8904 19.4066 1.63217 0
611 1 Si 196.849 50.0477 1.60411 0
612 1 Si 28.5258 19.4637 1.63302 0
613 1 Si 23.0483 20.3037 1.63331 0
614 1 Si 25.8381 21.5788 1.6199 0
615 1 Si 199.744 51.5018 1.63744 0
616 1 Si 33.5939 19.5593 1.61582 0
617 1 Si 30.9003 21.5917 1.62743 0
618 1 Si 111.065 54.2954 1.65559 0
619 1 Si 108.204 56.6984 1.66166 0
620 1 Si 104.55 56.2158 1.64972 0
621 1 Si 102.673 53.3588 1.6407 0
622 1 Si 116.993 51.9457 1.64211 0
623 1 Si 114.595 54.7615 1.65755 0
624 1 Si 50.3214 20.7053 1.62417 0
625 1 Si 44.876 21.5748 1.62053 0
626 1 Si 47.768 23.1236 1.64125 0
627 1 Si 120.067 52.682 1.64377 0
628 1 Si 56.2467 19.7329 1.60993 0
629 1 Si 52.3426 23.3907 1.61095 0
630 1 Si 55.3734 22.7475 1.62787 0
631 1 Si 59.2476 20.2198 1.6412 0
632 1 Si 65.0942 19.796 1.65684 0
633 1 Si 67.9779 18.8529 1.6207 0
634 1 Si 80.3211 20.1292 1.62512 0
635 1 Si 150.897 53.5518 1.62487 0
636 1 Si 157.95 53.5287 1.62363 0
637 1 Si 152.953 55.8713 1.63149 0
638 1 Si 156.002 56.2371 1.62995 0
639 1 Si 145.345 54.8063 1.62228 0
640 1 Si 148.369 55.4941 1.62612 0
641 1 Si 87.9391 21.5139 1.62215 0
642 1 Si 91.2062 21.4813 1.63204 0
643 1 Si 163.829 53.8279 1.61404 0
644 1 Si 160.798 55.3608 1.64184 0
645 1 Si 98.1017 19.4181 1.61159 0
646 1 Si 169.191 54.1001 1.62503 0
647 1 Si 166.364 55.8778 1.62888 0
648 1 Si 175.154 53.6607 1.62086 0
649 1 Si 172.13 55.5593 1.64985 0
650 1 Si 180.502 54.7979 1.63362 0
651 1 Si 177.49 55.956 1.63287 0
652 1 Si 13.3964 22.3127 1.6272 0
653 1 Si 185.809 55.5169 1.62112 0
654 1 Si 182.936 56.9143 1.62626 0
655 1 Si 20.1792 21.4574 1.62478 0
656 1 Si 200.17 54.5881 1.62403 0
657 1 Si 0.0897264 54.7853 1.61446 0
658 1 Si 2.98239 53.3702 1.6299 0
659 1 Si 35.8551 21.6375 1.64457 0
660 1 Si 38.806 20.6056 1.64517 0
661 1 Si 124.14 55.0861 1.62719 0
662 1 Si 121.022 55.6705 1.62084 0
663 1 Si 126.276 57.2776 1.61098 0
664 1 Si 60.6704 22.7276 1.54792 0
665 1 Si 63.9701 22.5788 1.57673 0
666 1 Si 140.134 56.0539 1.61697 0
667 1 Si 143.095 57.1674 1.64107 0
668 1 Si 69.9245 21.2123 1.61355 0
669 1 Si 79.6507 23.4106 1.62518 0
670 1 Si 74.0398 24.3455 1.62488 0
671 1 Si 77.0392 25.6674 1.613 0
672 1 Si 85.7575 23.7938 1.6249 0
673 1 Si 82.6447 24.5037 1.63335 0
674 1 Si 92.6576 24.363 1.61732 0
675 1 Si 98.4364 22.8541 1.6251 0
676 1 Si 95.8698 25.0069 1.62625 0
677 1 Si 191.615 55.458 1.61403 0
678 1 Si 188.651 57.0608 1.62236 0
679 1 Si 198.003 57.0848 1.61137 0
680 1 Si 194.505 57.459 1.63695 0
681 1 Si 18.8782 24.2091 1.61736 0
682 1 Si 15.7021 24.6222 1.63681 0
683 1 Si 200.408 59.4339 1.62441 0
684 1 Si 203.214 57.9438 1.6172 0
685 1 Si 115.908 58.0747 1.62347 0
686 1 Si 108.891 60.0553 1.61336 0
687 1 Si 111.667 62.024 1.62467 0
688 1 Si 114.937 61.4051 1.63187 0
689 1 Si 30.1394 24.9836 1.64731 0
690 1 Si 24.5557 24.7379 1.63024 0
691 1 Si 27.1416 26.681 1.62883 0
692 1 Si 119.212 58.2694 1.628 0
693 1 Si 35.1506 24.6771 1.64021 0
694 1 Si 32.8844 26.7945 1.63906 0
695 1 Si 39.9588 23.4154 1.63693 0
696 1 Si 42.9074 24.1717 1.60676 0
697 1 Si 47.6063 26.8193 1.6454 0
698 1 Si 52.6018 26.7892 1.62333 0
699 1 Si 50.1788 28.935 1.62788 0
700 1 Si 59.6103 25.8538 1.53249 0
701 1 Si 56.6401 25.6753 1.64034 0
702 1 Si 148.594 58.6326 1.63108 0
703 1 Si 143.556 60.3729 1.62742 0
704 1 Si 146.656 61.12 1.63525 0
705 1 Si 62.4276 25.0629 1.79761 0
706 1 Si 69.0315 24.2392 1.6331 0
707 1 Si 63.8 27.5379 1.62542 0
708 1 Si 66.4785 25.9558 1.55018 0
709 1 Si 151.647 58.7297 1.62428 0
710 1 Si 160.603 58.827 1.6233 0
711 1 Si 155.695 59.5702 1.63319 0
712 1 Si 158.311 61.2832 1.612 0
713 1 Si 90.5952 26.9051 1.62269 0
714 1 Si 87.5537 26.355 1.63967 0
715 1 Si 165.892 59.2231 1.64802 0
716 1 Si 162.998 61.0316 1.62073 0
717 1 Si 171.546 58.9533 1.64332 0
718 1 Si 168.73 60.8385 1.6325 0
719 1 Si 177.064 59.2399 1.63621 0
720 1 Si 174.205 60.8075 1.63873 0
721 1 Si 182.617 60.082 1.63758 0
722 1 Si 179.619 61.2571 1.64483 0
723 1 Si 188.091 60.2817 1.63268 0
724 1 Si 185.294 61.9126 1.64765 0
725 1 Si 21.4385 26.0849 1.60323 0
726 1 Si 37.9636 25.7604 1.62343 0
727 1 Si 124.678 60.0772 1.61475 0
728 1 Si 121.45 60.66 1.62935 0
729 1 Si 106.35 62.2058 1.61899 0
730 1 Si 103.069 61.8628 1.63359 0
731 1 Si 102.202 58.7365 1.60815 0
732 1 Si 141.446 62.8445 1.63684 0
733 1 Si 71.1593 26.5911 1.60132 0
734 1 Si 77.3855 28.9827 1.6345 0
735 1 Si 82.5894 27.5875 1.6394 0
736 1 Si 80.4497 29.7783 1.62795 0
737 1 Si 90.4638 30.2438 1.61804 0
738 1 Si 95.9821 28.2742 1.62176 0
739 1 Si 93.5951 30.4887 1.63053 0
740 1 Si 193.47 60.6036 1.62048 0
741 1 Si 190.621 62.1475 1.6236 0
742 1 Si 15.4897 27.7951 1.62316 0
743 1 Si 12.3788 29.1658 1.62237 0
744 1 Si 18.8656 28.2627 1.62946 0
745 1 Si 200.685 62.7721 1.61427 0
746 1 Si 194.983 63.3333 1.63001 0
747 1 Si 197.923 64.2033 1.62385 0
748 1 Si 2.94735 58.4952 1.62699 0
749 1 Si 202.189 65.8141 1.61907 0
750 1 Si 2.00947 66.3532 1.62705 0
751 1 Si 4.02193 63.8469 1.58936 0
752 1 Si 4.91875 60.8302 1.63695 0
753 1 Si 4.7457 55.905 1.63027 0
754 1 Si 26.2979 30.0075 1.63619 0
755 1 Si 20.0443 31.189 1.62787 0
756 1 Si 23.2896 31.7409 1.61519 0
757 1 Si 34.519 29.7729 1.63443 0
758 1 Si 28.9015 31.9527 1.6212 0
759 1 Si 32.201 32.0038 1.62515 0
760 1 Si 107.633 65.1416 1.61935 0
761 1 Si 110.867 65.2044 1.61317 0
762 1 Si 39.5593 28.3572 1.63342 0
763 1 Si 37.8854 30.9601 1.63444 0
764 1 Si 120.396 63.6664 1.62352 0
765 1 Si 117.155 64.1006 1.6122 0
766 1 Si 42.5507 27.356 1.62585 0
767 1 Si 45.1096 29.1455 1.62731 0
768 1 Si 55.3921 28.6012 1.60922 0
769 1 Si 62.2728 30.1892 1.58259 0
770 1 Si 56.459 31.8327 1.64442 0
771 1 Si 60.0366 32.5949 1.63348 0
772 1 Si 65.5476 29.1356 1.58251 0
773 1 Si 68.8371 29.3264 1.62118 0
774 1 Si 153.056 61.4935 1.6185 0
775 1 Si 147.878 64.0871 1.63116 0
776 1 Si 151.179 64.1432 1.63454 0
777 1 Si 68.8754 32.6041 1.6199 0
778 1 Si 72.3643 32.5213 1.59623 0
779 1 Si 75.6494 31.6975 1.63984 0
780 1 Si 85.498 28.6149 1.62929 0
781 1 Si 161.636 64.3111 1.62174 0
782 1 Si 158.295 64.6735 1.61556 0
783 1 Si 168.597 64.1619 1.63716 0
784 1 Si 166.459 66.6177 1.60387 0
785 1 Si 163.274 67.2248 1.61893 0
786 1 Si 174.035 64.0932 1.63202 0
787 1 Si 171.352 65.8265 1.61647 0
788 1 Si 179.443 64.4838 1.64156 0
789 1 Si 176.604 66.0111 1.6437 0
790 1 Si 185.174 65.1816 1.62043 0
791 1 Si 182.145 66.2632 1.63377 0
792 1 Si 190.328 65.3942 1.62476 0
793 1 Si 187.727 67.3356 1.61875 0
794 1 Si 193.354 66.0577 1.62378 0
795 1 Si 122.303 66.2977 1.61211 0
796 1 Si 117.43 67.425 1.62473 0
797 1 Si 120.35 68.8434 1.62188 0
798 1 Si 105.985 67.8395 1.62807 0
799 1 Si 103.093 69.0986 1.63467 0
800 1 Si 100.485 64.0552 1.62019 0
801 1 Si 100.399 67.3962 1.61872 0
802 1 Si 125.438 66.9917 1.63527 0
803 1 Si 85.4925 31.6885 1.64182 0
804 1 Si 82.4025 32.2619 1.63148 0
805 1 Si 142.514 65.9703 1.63694 0
806 1 Si 145.766 66.6001 1.62984 0
807 1 Si 88.355 32.9881 1.62927 0
808 1 Si 137.11 67.956 1.64235 0
809 1 Si 140.343 68.4499 1.63199 0
810 1 Si 98.4272 30.2489 1.64797 0
811 1 Si 12.2477 32.4379 1.61426 0
812 1 Si 17.8357 33.5855 1.59657 0
813 1 Si 14.7307 34.4996 1.63795 0
814 1 Si 22.7116 34.9962 1.62202 0
815 1 Si 19.6924 36.161 1.59237 0
816 1 Si 197.932 67.3356 1.62113 0
817 1 Si 195.079 68.6263 1.64244 0
818 1 Si 27.959 34.9899 1.61688 0
819 1 Si 25.2935 36.8025 1.63673 0
820 1 Si 200.687 68.7558 1.63157 0
821 1 Si 33.305 35.0345 1.62943 0
822 1 Si 30.5618 36.6369 1.6299 0
823 1 Si 112.364 68.0932 1.63719 0
824 1 Si 107.582 70.4657 1.63293 0
825 1 Si 110.588 70.635 1.6409 0
826 1 Si 40.74 33.0835 1.6224 0
827 1 Si 35.9415 36.8362 1.62557 0
828 1 Si 39.3001 36.0757 1.62744 0
829 1 Si 115.177 69.6813 1.64658 0
830 1 Si 44.3855 32.4526 1.62615 0
831 1 Si 50.4052 32.422 1.62972 0
832 1 Si 47.3997 34.3069 1.64409 0
833 1 Si 131.618 68.9476 1.63282 0
834 1 Si 126.383 70.1086 1.63445 0
835 1 Si 129.37 71.1367 1.63018 0
836 1 Si 53.5966 33.9443 1.63121 0
837 1 Si 134.596 69.9939 1.61542 0
838 1 Si 65.8463 35.0891 1.63329 0
839 1 Si 61.9928 35.5661 1.62306 0
840 1 Si 72.8909 35.5938 1.61829 0
841 1 Si 67.4762 37.8815 1.65369 0
842 1 Si 70.6302 37.6626 1.62101 0
843 1 Si 77.8541 34.1247 1.62781 0
844 1 Si 75.8877 36.4875 1.6308 0
845 1 Si 80.9791 34.9915 1.64165 0
846 1 Si 152.517 67.0434 1.61269 0
847 1 Si 147.017 69.6729 1.62301 0
848 1 Si 150.382 69.6255 1.62629 0
849 1 Si 155.824 67.3499 1.62396 0
850 1 Si 167.863 69.551 1.61635 0
851 1 Si 162.97 70.6141 1.60802 0
852 1 Si 165.923 72.1332 1.61714 0
853 1 Si 94.2387 33.5648 1.60571 0
854 1 Si 97.3247 33.1581 1.61481 0
855 1 Si 171.017 69.0639 1.62003 0
856 1 Si 176.28 69.2358 1.62315 0
857 1 Si 173.551 71.038 1.62633 0
858 1 Si 187.433 70.743 1.62309 0
859 1 Si 181.886 69.4073 1.63828 0
860 1 Si 184.27 71.4984 1.62565 0