ITEM: TIMESTEP
1640
ITEM: NUMBER OF ATOMS
15336
ITEM: BOX BOUNDS pp pp pp
0.0000000000000000e+00 2.0301048662455867e+02
0.0000000000000000e+00 1.7602156091727940e+02
-1.0000000000000000e+02 1.0000000000000000e+02
ITEM: ATOMS id type element x y z v_uncoordination
1 1 Si 135.466 59.7726 1.65366 0
2 1 Si 135.271 56.6866 1.61643 0
3 1 Si 133.441 62.2132 1.61971 0
4 1 Si 130.897 55.7809 1.61425 0
5 1 Si 133.496 54.148 1.62376 0
6 1 Si 129.795 58.7272 1.6514 0
7 1 Si 130.272 61.8797 1.61401 0
8 1 Si 138.583 59.221 1.61784 0
9 1 Si 137.415 54.356 1.62455 0
10 1 Si 139.789 56.2862 1.64217 0
11 1 Si 139.388 62.2255 1.62623 0
12 1 Si 134.446 65.235 1.61507 0
13 1 Si 137.629 64.9233 1.6363 0
14 1 Si 182.456 44.1405 1.62547 0
15 1 Si 179.138 43.6774 1.61259 0
16 1 Si 184.551 41.4688 1.63628 0
17 1 Si 180.328 36.8614 1.6146 0
18 1 Si 177.27 38.0926 1.62851 0
19 1 Si 183.542 38.001 1.64921 0
20 1 Si 176.811 41.2907 1.62825 0
21 1 Si 183.588 47.3755 1.63103 0
22 1 Si 177.245 46.3246 1.62039 0
23 1 Si 178.164 49.4186 1.63809 0
24 1 Si 181.422 49.7857 1.63667 0
25 1 Si 187.618 42.9789 1.61851 0
26 1 Si 188.616 46.1848 1.63039 0
27 1 Si 186.681 48.7444 1.62457 0
28 1 Si 142.532 50.9885 1.64629 0
29 1 Si 139.699 48.8458 1.63135 0
30 1 Si 145.682 49.6255 1.61375 0
31 1 Si 141.674 42.8975 1.61988 0
32 1 Si 138.88 45.1755 1.63341 0
33 1 Si 145.182 43.6484 1.6334 0
34 1 Si 147.104 46.5148 1.62065 0
35 1 Si 142.449 54.597 1.63028 0
36 1 Si 137.371 51.1628 1.62433 0
37 1 Si 148.343 51.6341 1.62859 0
38 1 Si 147.973 54.9493 1.62119 0
39 1 Si 143.289 58.1144 1.63581 0
40 1 Si 146.424 57.9032 1.63237 0
41 1 Si 106.276 3.23585 1.64244 0
42 1 Si 103.265 4.20902 1.62333 0
43 1 Si 108.838 5.0241 1.63076 0
44 1 Si 108.451 8.31061 1.62932 0
45 1 Si 105.209 9.61135 1.6332 0
46 1 Si 102.574 7.44506 1.63252 0
47 1 Si 106.76 0.131697 1.60613 0
48 1 Si 102.293 1.0963 1.62902 0
49 1 Si 104.113 174.472 1.59732 0
50 1 Si 111.138 2.64123 1.62657 0
51 1 Si 111.76 175.371 1.63304 0
52 1 Si 108.995 173.942 1.62555 0
53 1 Si 118.386 4.71766 1.5631 0
54 1 Si 121.613 4.88019 1.55799 0
55 1 Si 117.031 7.7358 1.55376 0
56 1 Si 119.986 7.66676 1.63202 0
57 1 Si 116.454 2.31607 1.62188 0
58 1 Si 123.597 2.59421 1.60388 0
59 1 Si 116.893 175.233 1.62738 0
60 1 Si 119.942 174.354 1.61627 0
61 1 Si 122.928 175.577 1.63587 0
62 1 Si 114.014 7.23018 1.63392 0
63 1 Si 113.856 4.08223 1.61649 0
64 1 Si 122.943 8.04971 1.55988 0
65 1 Si 124.913 5.47231 1.64373 0
66 1 Si 128.48 9.06218 1.6112 0
67 1 Si 128.121 5.65941 1.61577 0
68 1 Si 120.152 11.4895 1.61546 0
69 1 Si 126.728 11.9664 1.6347 0
70 1 Si 123.356 12.8826 1.61733 0
71 1 Si 131.704 9.67608 1.62383 0
72 1 Si 134.153 7.50795 1.6276 0
73 1 Si 133.652 4.14311 1.62205 0
74 1 Si 130.491 2.85669 1.62289 0
75 1 Si 144.629 4.93169 1.62624 0
76 1 Si 142.758 7.6778 1.62803 0
77 1 Si 147.956 5.38742 1.64171 0
78 1 Si 148.639 8.55383 1.60451 0
79 1 Si 143.469 10.9237 1.63742 0
80 1 Si 146.684 11.0663 1.59855 0
81 1 Si 142.347 2.43402 1.60006 0
82 1 Si 139.65 6.82759 1.62746 0
83 1 Si 139.3 3.59894 1.60711 0
84 1 Si 150.721 3.43799 1.62689 0
85 1 Si 150.292 0.00101144 1.64578 0
86 1 Si 144.328 174.155 1.65853 0
87 1 Si 141.459 175.216 1.6185 0
88 1 Si 147.381 174.755 1.60458 0
89 1 Si 153.708 5.29982 1.6207 0
90 1 Si 154.213 8.76576 1.62466 0
91 1 Si 151.294 10.3316 1.62835 0
92 1 Si 156.677 3.77798 1.62611 0
93 1 Si 157.093 0.512084 1.60566 0
94 1 Si 152.128 173.074 1.63269 0
95 1 Si 155.353 173.648 1.61628 0
96 1 Si 159.698 5.33266 1.61802 0
97 1 Si 160.222 8.64522 1.62999 0
98 1 Si 157.287 10.5315 1.61325 0
99 1 Si 162.326 3.22303 1.62357 0
100 1 Si 160.368 0.403921 1.58531 0
101 1 Si 165.84 4.34143 1.63389 0
102 1 Si 166.568 7.80787 1.62288 0
103 1 Si 163.6 9.72983 1.64399 0
104 1 Si 168.658 2.19237 1.62036 0
105 1 Si 168.31 174.961 1.61898 0
106 1 Si 159.538 173.196 1.57049 0
107 1 Si 162.493 172.561 1.6053 0
108 1 Si 165.364 173.782 1.58722 0
109 1 Si 174.183 4.7377 1.61791 0
110 1 Si 173.187 7.9848 1.621 0
111 1 Si 172.108 2.12763 1.61609 0
112 1 Si 169.946 9.38012 1.65205 0
113 1 Si 177.546 4.17677 1.61341 0
114 1 Si 178.779 7.42965 1.62798 0
115 1 Si 176.148 9.71751 1.63047 0
116 1 Si 173.58 175.059 1.61888 0
117 1 Si 171.029 173.025 1.63945 0
118 1 Si 178.95 0.802514 1.62756 0
119 1 Si 184.85 6.00826 1.64351 0
120 1 Si 184.535 2.70681 1.63472 0
121 1 Si 182.209 8.31332 1.64657 0
122 1 Si 182.375 0.227159 1.6381 0
123 1 Si 176.843 173.953 1.62586 0
124 1 Si 189.729 3.50968 1.62499 0
125 1 Si 188.237 6.31055 1.63144 0
126 1 Si 187.473 1.38041 1.606 0
127 1 Si 192.622 2.25534 1.63852 0
128 1 Si 194.968 4.33581 1.62789 0
129 1 Si 194.142 7.52815 1.62623 0
130 1 Si 190.824 8.37039 1.63732 0
131 1 Si 192.969 175.092 1.60343 0
132 1 Si 189.642 175 1.64087 0
133 1 Si 197.818 2.90137 1.62609 0
134 1 Si 200.17 4.93916 1.62303 0
135 1 Si 199.82 8.02234 1.63602 0
136 1 Si 196.89 9.43736 1.63256 0
137 1 Si 198.862 175.878 1.60868 0
138 1 Si 196.148 173.769 1.64142 0
139 1 Si 0.0433865 3.68733 1.61106 0
140 1 Si 202.228 0.502886 1.63654 0
141 1 Si 2.22234 6.08636 1.63585 0
142 1 Si 0.0252546 8.55361 1.62656 0
143 1 Si 5.58324 5.86959 1.62325 0
144 1 Si 6.71798 2.73168 1.63067 0
145 1 Si 2.00239 174.742 1.62771 0
146 1 Si 5.05113 175.973 1.61702 0
147 1 Si 111.622 9.39791 1.62411 0
148 1 Si 112.791 12.436 1.62785 0
149 1 Si 116.484 12.2064 1.64598 0
150 1 Si 132.401 12.8427 1.6236 0
151 1 Si 129.358 13.9996 1.62679 0
152 1 Si 137.207 8.97266 1.62343 0
153 1 Si 137.988 12.2675 1.62381 0
154 1 Si 135.385 14.3008 1.62985 0
155 1 Si 136.375 2.09258 1.63471 0
156 1 Si 141.175 13.4369 1.624 0
157 1 Si 170.227 12.8045 1.65155 0
158 1 Si 164.042 13.0865 1.63707 0
159 1 Si 167.261 14.4091 1.63523 0
160 1 Si 176.259 13.2802 1.62181 0
161 1 Si 173.206 14.6476 1.62933 0
162 1 Si 183.223 11.6014 1.62701 0
163 1 Si 178.76 15.9435 1.63514 0
164 1 Si 181.829 14.7414 1.62291 0
165 1 Si 189.684 11.4209 1.63175 0
166 1 Si 186.459 12.2619 1.61052 0
167 1 Si 197.514 12.6767 1.62591 0
168 1 Si 191.82 13.9846 1.60686 0
169 1 Si 195.069 14.9173 1.63446 0
170 1 Si 0.617027 11.6481 1.62578 0
171 1 Si 3.68934 12.8842 1.62454 0
172 1 Si 7.91907 8.43151 1.61972 0
173 1 Si 6.89201 11.7663 1.63809 0
174 1 Si 104.234 12.9129 1.63013 0
175 1 Si 110.211 15.0211 1.61575 0
176 1 Si 106.715 15.3095 1.63589 0
177 1 Si 122.423 15.986 1.6211 0
178 1 Si 116.591 15.2668 1.61565 0
179 1 Si 119.363 16.6564 1.6212 0
180 1 Si 129.683 17.1637 1.62458 0
181 1 Si 123.842 18.8864 1.62185 0
182 1 Si 127.029 18.9817 1.63119 0
183 1 Si 149.279 12.9032 1.62062 0
184 1 Si 148.531 16.0999 1.62444 0
185 1 Si 141.759 16.8538 1.63695 0
186 1 Si 145.154 17.8659 1.61918 0
187 1 Si 157.798 13.9876 1.639 0
188 1 Si 151.726 17.2111 1.6051 0
189 1 Si 155.155 16.3674 1.63176 0
190 1 Si 161.18 15.0277 1.62547 0
191 1 Si 200.783 13.337 1.61651 0
192 1 Si 202.427 16.0204 1.62363 0
193 1 Si 2.5859 15.9093 1.60356 0
194 1 Si 100.834 13.8254 1.63187 0
195 1 Si 99.3699 8.42342 1.62321 0
196 1 Si 98.265 11.6428 1.6269 0
197 1 Si 114.682 17.7328 1.62434 0
198 1 Si 111.537 18.1277 1.62343 0
199 1 Si 117.477 19.1423 1.62805 0
200 1 Si 135.776 17.632 1.60954 0
201 1 Si 132.615 18.7011 1.62724 0
202 1 Si 138.932 19.1258 1.63061 0
203 1 Si 167.767 17.6988 1.62779 0
204 1 Si 161.862 18.3529 1.63254 0
205 1 Si 165.04 19.4829 1.61868 0
206 1 Si 173.555 18.0142 1.62181 0
207 1 Si 170.672 19.4075 1.62005 0
208 1 Si 175.821 20.5972 1.62659 0
209 1 Si 178.967 19.6717 1.62665 0
210 1 Si 186.648 15.4369 1.61984 0
211 1 Si 184.029 17.2189 1.62726 0
212 1 Si 189.662 16.387 1.62849 0
213 1 Si 195.784 18.2164 1.61398 0
214 1 Si 190.109 19.5434 1.62344 0
215 1 Si 193.268 20.2721 1.62298 0
216 1 Si 118.796 21.9414 1.61741 0
217 1 Si 122.116 21.6914 1.62434 0
218 1 Si 131.608 21.6904 1.63139 0
219 1 Si 128.441 21.7487 1.60786 0
220 1 Si 145.014 21.2993 1.62265 0
221 1 Si 139.321 22.6757 1.62064 0
222 1 Si 142.491 23.626 1.64387 0
223 1 Si 150.662 20.3765 1.61361 0
224 1 Si 148.046 22.4815 1.64794 0
225 1 Si 156.165 19.432 1.63174 0
226 1 Si 153.646 21.4582 1.6244 0
227 1 Si 159.242 20.4379 1.64051 0
228 1 Si 201.477 18.9934 1.62106 0
229 1 Si 198.531 20.0313 1.63287 0
230 1 Si 105.512 18.4541 1.61537 0
231 1 Si 102.354 19.0758 1.61634 0
232 1 Si 99.8624 17.0541 1.62537 0
233 1 Si 110.487 21.3742 1.65591 0
234 1 Si 107.08 21.3526 1.61832 0
235 1 Si 116.353 24.2158 1.62779 0
236 1 Si 112.686 24.232 1.64595 0
237 1 Si 132.446 24.7236 1.60582 0
238 1 Si 134.684 27.0208 1.62987 0
239 1 Si 137.778 25.8386 1.62345 0
240 1 Si 166.604 22.3587 1.6401 0
241 1 Si 159.288 23.6991 1.63223 0
242 1 Si 161.853 25.5074 1.61689 0
243 1 Si 164.867 24.855 1.63248 0
244 1 Si 171.847 22.53 1.60918 0
245 1 Si 169.29 24.2915 1.63784 0
246 1 Si 174.896 23.8713 1.62155 0
247 1 Si 184.403 20.5168 1.63094 0
248 1 Si 181.61 22.3421 1.62201 0
249 1 Si 187.539 21.6764 1.63516 0
250 1 Si 0.739758 21.2213 1.60295 0
251 1 Si 3.13993 19.0882 1.6332 0
252 1 Si 104.508 23.514 1.62802 0
253 1 Si 101.527 22.1828 1.60043 0
254 1 Si 123.93 24.3671 1.63591 0
255 1 Si 118.971 26.3095 1.61517 0
256 1 Si 122.269 27.0124 1.62768 0
257 1 Si 127.101 24.5467 1.63464 0
258 1 Si 129.685 26.3272 1.62514 0
259 1 Si 148.292 25.7802 1.61112 0
260 1 Si 142.467 27.0289 1.60479 0
261 1 Si 144.179 29.908 1.61877 0
262 1 Si 147.207 28.9127 1.64259 0
263 1 Si 153.874 24.5787 1.6409 0
264 1 Si 151.36 26.4578 1.62741 0
265 1 Si 156.798 25.7405 1.6272 0
266 1 Si 193.914 23.3663 1.62621 0
267 1 Si 188.43 24.8474 1.61247 0
268 1 Si 191.543 25.3913 1.63203 0
269 1 Si 199.311 23.214 1.62454 0
270 1 Si 196.669 24.9401 1.61811 0
271 1 Si 202.463 24.1866 1.63745 0
272 1 Si 111.072 27.3331 1.64282 0
273 1 Si 107.749 28.0068 1.60783 0
274 1 Si 104.764 26.7283 1.62507 0
275 1 Si 118.723 29.3661 1.62669 0
276 1 Si 112.921 30.0823 1.64278 0
277 1 Si 115.988 30.7518 1.61919 0
278 1 Si 129.991 29.4683 1.61681 0
279 1 Si 133.221 30.1561 1.62102 0
280 1 Si 139.634 28.6258 1.59726 0
281 1 Si 162.003 28.6576 1.62132 0
282 1 Si 156.966 28.9275 1.62334 0
283 1 Si 159.607 30.6323 1.61062 0
284 1 Si 166.769 27.2786 1.61246 0
285 1 Si 164.912 29.6696 1.62894 0
286 1 Si 169.815 27.5321 1.59048 0
287 1 Si 182.127 26.0179 1.62721 0
288 1 Si 176.245 27.2619 1.64546 0
289 1 Si 179.576 28.0735 1.62673 0
290 1 Si 187.722 28.0582 1.63041 0
291 1 Si 184.547 28.5968 1.62569 0
292 1 Si 0.612858 27.3733 1.6343 0
293 1 Si 195.861 28.0184 1.6326 0
294 1 Si 201.408 29.953 1.62453 0
295 1 Si 198.104 30.2662 1.62712 0
296 1 Si 3.91509 28.2398 1.62646 0
297 1 Si 6.1092 20.0237 1.63723 0
298 1 Si 7.00039 23.1493 1.60804 0
299 1 Si 6.66964 26.3975 1.62575 0
300 1 Si 105.788 30.6056 1.61038 0
301 1 Si 102.752 29.3778 1.609 0
302 1 Si 124.225 29.7238 1.63289 0
303 1 Si 121.406 30.9844 1.62308 0
304 1 Si 127.221 31.2067 1.65212 0
305 1 Si 139.784 32.0399 1.62594 0
306 1 Si 142.903 33.1241 1.59672 0
307 1 Si 151.727 29.5119 1.62274 0
308 1 Si 149.247 31.3969 1.58858 0
309 1 Si 154.499 30.8387 1.62521 0
310 1 Si 168.988 30.7402 1.63706 0
311 1 Si 174.592 30.2879 1.61721 0
312 1 Si 171.805 32.1576 1.62265 0
313 1 Si 192.678 28.3166 1.61847 0
314 1 Si 190.209 30.2988 1.62961 0
315 1 Si 106.65 33.6989 1.63005 0
316 1 Si 109.723 34.9325 1.61521 0
317 1 Si 112.355 33.2408 1.64404 0
318 1 Si 120.168 33.7579 1.63727 0
319 1 Si 117.124 33.6537 1.61026 0
320 1 Si 127.554 34.4911 1.64473 0
321 1 Si 121.69 36.3264 1.62255 0
322 1 Si 124.821 36.0382 1.60239 0
323 1 Si 134.216 33.5573 1.60974 0
324 1 Si 129.687 37.0137 1.64129 0
325 1 Si 132.954 36.804 1.61702 0
326 1 Si 137.419 34.4638 1.61569 0
327 1 Si 159.606 33.821 1.61957 0
328 1 Si 153.894 33.9397 1.61323 0
329 1 Si 156.651 35.5614 1.62956 0
330 1 Si 166.085 32.5049 1.59588 0
331 1 Si 163.017 34.029 1.61532 0
332 1 Si 180.993 31.1164 1.6189 0
333 1 Si 176.164 33.0964 1.62204 0
334 1 Si 179.286 33.7691 1.61801 0
335 1 Si 184.174 31.9843 1.61064 0
336 1 Si 202.231 33.108 1.607 0
337 1 Si 196.901 33.2624 1.61738 0
338 1 Si 199.618 34.8601 1.61059 0
339 1 Si 1.41894 35.5621 1.63236 0
340 1 Si 4.4812 34.6015 1.63296 0
341 1 Si 5.09071 31.3613 1.59462 0
342 1 Si 104.326 35.9352 1.61422 0
343 1 Si 111.203 37.9373 1.62695 0
344 1 Si 106.001 38.693 1.62103 0
345 1 Si 108.922 40.1435 1.61959 0
346 1 Si 114.689 35.4444 1.62353 0
347 1 Si 150.68 34.2444 1.64213 0
348 1 Si 143.205 36.6786 1.62239 0
349 1 Si 149.148 36.9887 1.61622 0
350 1 Si 146.15 37.9492 1.61425 0
351 1 Si 171.578 35.4895 1.61952 0
352 1 Si 174.766 35.9423 1.6132 0
353 1 Si 191.08 33.4675 1.61582 0
354 1 Si 185.625 35.2425 1.63944 0
355 1 Si 188.991 35.96 1.61444 0
356 1 Si 194.098 34.7729 1.63006 0
357 1 Si 101.068 36.4476 1.64067 0
358 1 Si 99.579 30.9574 1.62539 0
359 1 Si 98.4957 34.45 1.62273 0
360 1 Si 114.469 38.6068 1.6201 0
361 1 Si 120.077 39.0712 1.59368 0
362 1 Si 117.214 40.5901 1.64273 0
363 1 Si 123.17 38.702 1.63005 0
364 1 Si 125.259 40.7912 1.61973 0
365 1 Si 128.253 39.9297 1.58675 0
366 1 Si 137.875 37.8896 1.61123 0
367 1 Si 135.038 39.6701 1.60293 0
368 1 Si 140.941 39.3581 1.61767 0
369 1 Si 162.692 37.1258 1.6328 0
370 1 Si 159.455 38.3456 1.62913 0
371 1 Si 156.09 38.8217 1.61899 0
372 1 Si 165.992 37.8555 1.59948 0
373 1 Si 160.815 41.0757 1.62675 0
374 1 Si 163.896 40.2295 1.60249 0
375 1 Si 169.361 37.9918 1.64857 0
376 1 Si 200.218 37.9318 1.63596 0
377 1 Si 0.331555 38.7036 1.61174 0
378 1 Si 150.248 39.9737 1.63212 0
379 1 Si 147.161 40.9905 1.61081 0
380 1 Si 153.375 41.102 1.6397 0
381 1 Si 170.607 41.0662 1.64103 0
382 1 Si 173.676 42.3277 1.61319 0
383 1 Si 191.203 38.5454 1.62743 0
384 1 Si 190.623 41.7196 1.62642 0
385 1 Si 194.466 38.0087 1.61242 0
386 1 Si 197.442 39.5482 1.63769 0
387 1 Si 103.692 40.744 1.60693 0
388 1 Si 100.766 39.608 1.61489 0
389 1 Si 109.23 43.4058 1.62186 0
390 1 Si 103.736 43.882 1.62923 0
391 1 Si 106.547 45.2461 1.61547 0
392 1 Si 117.635 43.9669 1.62097 0
393 1 Si 111.638 45.5409 1.6307 0
394 1 Si 114.892 46.004 1.63579 0
395 1 Si 123.796 43.5413 1.60763 0
396 1 Si 120.896 45.1741 1.63164 0
397 1 Si 127.055 42.9515 1.63593 0
398 1 Si 135.334 43.3653 1.63268 0
399 1 Si 128.755 45.5299 1.6186 0
400 1 Si 132.323 45.2586 1.61829 0
401 1 Si 159.554 43.9886 1.61576 0
402 1 Si 153.567 44.5806 1.65101 0
403 1 Si 156.834 45.8146 1.6271 0
404 1 Si 165.125 43.038 1.62689 0
405 1 Si 162.601 44.9654 1.62239 0
406 1 Si 168.273 43.3293 1.63386 0
407 1 Si 198.476 42.5907 1.62498 0
408 1 Si 1.11958 41.9549 1.64423 0
409 1 Si 201.445 43.9542 1.60888 0
410 1 Si 100.748 44.9326 1.62285 0
411 1 Si 99.0346 42.2225 1.61995 0
412 1 Si 12.3375 4.2485 1.62544 0
413 1 Si 11.3068 7.537 1.6389 0
414 1 Si 9.93798 2.03036 1.62087 0
415 1 Si 15.4861 2.82217 1.63162 0
416 1 Si 17.9118 5.14899 1.62363 0
417 1 Si 16.8428 8.21905 1.62399 0
418 1 Si 13.9638 9.66823 1.62344 0
419 1 Si 15.8755 175.362 1.60454 0
420 1 Si 13.2936 173.295 1.61654 0
421 1 Si 10.4298 174.825 1.62161 0
422 1 Si 21.2254 5.60039 1.629 0
423 1 Si 22.0016 8.77764 1.6122 0
424 1 Si 19.2271 10.2921 1.61276 0
425 1 Si 23.8145 3.60401 1.63641 0
426 1 Si 22.7881 0.0478498 1.59891 0
427 1 Si 17.9525 172.674 1.62254 0
428 1 Si 21.1664 172.897 1.62162 0
429 1 Si 29.5384 4.18167 1.63772 0
430 1 Si 29.17 1.11681 1.60596 0
431 1 Si 26.9724 5.98649 1.63368 0
432 1 Si 24.8638 173.617 1.61352 0
433 1 Si 27.801 174.403 1.63487 0
434 1 Si 150.637 46.6494 1.61622 0
435 1 Si 34.307 2.25907 1.62799 0
436 1 Si 37.358 1.6257 1.64124 0
437 1 Si 32.6588 4.91741 1.62456 0
438 1 Si 39.2584 4.1796 1.63844 0
439 1 Si 34.5395 7.45713 1.62087 0
440 1 Si 37.8226 7.11741 1.63943 0
441 1 Si 32.1157 0.13054 1.62773 0
442 1 Si 38.094 174.552 1.62972 0
443 1 Si 35.7069 172.339 1.62825 0
444 1 Si 32.6691 173.14 1.64019 0
445 1 Si 42.4024 3.47895 1.63323 0
446 1 Si 43.4674 0.39306 1.63257 0
447 1 Si 41.2646 173.971 1.63413 0
448 1 Si 48.7735 2.59102 1.6378 0
449 1 Si 51.8712 1.74542 1.60427 0
450 1 Si 47.6067 5.5526 1.61269 0
451 1 Si 54.989 2.71113 1.6342 0
452 1 Si 55.3095 5.9699 1.61447 0
453 1 Si 52.7479 8.34761 1.61816 0
454 1 Si 49.2454 8.32812 1.61289 0
455 1 Si 46.7113 0.094288 1.61856 0
456 1 Si 51.9138 174.61 1.59634 0
457 1 Si 48.853 173.712 1.63045 0
458 1 Si 44.3998 5.94953 1.63627 0
459 1 Si 57.196 0.182262 1.6157 0
460 1 Si 54.9819 173.827 1.6301 0
461 1 Si 58.5461 6.9177 1.61722 0
462 1 Si 57.696 10.1472 1.61823 0
463 1 Si 54.4869 11.1777 1.61792 0
464 1 Si 62.6881 1.90158 1.63126 0
465 1 Si 61.7375 5.36153 1.64898 0
466 1 Si 60.4964 175.293 1.65021 0
467 1 Si 174.132 45.551 1.6272 0
468 1 Si 168.881 46.3859 1.62382 0
469 1 Si 171.739 47.7122 1.6125 0
470 1 Si 65.9685 0.88799 1.62645 0
471 1 Si 68.1999 3.41235 1.62883 0
472 1 Si 67.3799 6.55207 1.62831 0
473 1 Si 64.3059 7.58817 1.61429 0
474 1 Si 67.3227 173.741 1.61523 0
475 1 Si 63.8795 169.442 1.63164 0
476 1 Si 67.0319 170.348 1.62483 0
477 1 Si 61.3614 171.857 1.63856 0
478 1 Si 71.4187 2.93861 1.63556 0
479 1 Si 72.449 175.934 1.61891 0
480 1 Si 70.5326 173.454 1.62254 0
481 1 Si 74.1121 4.72505 1.62035 0
482 1 Si 74.8905 7.89253 1.63043 0
483 1 Si 69.3556 9.10945 1.61427 0
484 1 Si 72.4458 9.87021 1.62498 0
485 1 Si 192.954 44.0318 1.60873 0
486 1 Si 191.798 46.9987 1.59403 0
487 1 Si 76.5437 2.61659 1.61624 0
488 1 Si 75.6228 175.589 1.62584 0
489 1 Si 81.6415 1.50661 1.63725 0
490 1 Si 79.4536 3.87175 1.63824 0
491 1 Si 83.9158 3.67735 1.62375 0
492 1 Si 84.7488 6.71112 1.63631 0
493 1 Si 80.033 7.14738 1.62508 0
494 1 Si 82.7525 9.02402 1.62683 0
495 1 Si 82.1351 174.274 1.64715 0
496 1 Si 80.0728 171.813 1.61751 0
497 1 Si 76.9968 172.718 1.61551 0
498 1 Si 196.097 44.6463 1.6206 0
499 1 Si 86.794 2.65306 1.63041 0
500 1 Si 88.9227 4.88999 1.63476 0
501 1 Si 87.7251 7.72841 1.62471 0
502 1 Si 87.2141 175.672 1.62033 0
503 1 Si 85.1632 173.336 1.61114 0
504 1 Si 106.889 48.4066 1.62583 0
505 1 Si 110.048 48.3371 1.61629 0
506 1 Si 91.9622 4.51445 1.62457 0
507 1 Si 92.3538 1.41385 1.63673 0
508 1 Si 90.2361 175.161 1.63784 0
509 1 Si 97.5327 2.74766 1.61066 0
510 1 Si 99.3656 0.0607622 1.63012 0
511 1 Si 97.1355 5.99858 1.64823 0
512 1 Si 95.2769 0.525629 1.62646 0
513 1 Si 98.5929 172.874 1.62688 0
514 1 Si 95.5264 173.399 1.62925 0
515 1 Si 94.0348 6.92481 1.64199 0
516 1 Si 121.929 48.3087 1.62504 0
517 1 Si 114.727 49.3109 1.60653 0
518 1 Si 116.318 52.107 1.6317 0
519 1 Si 119.632 51.6867 1.61825 0
520 1 Si 125.429 47.178 1.6318 0
521 1 Si 14.7513 12.991 1.63521 0
522 1 Si 8.97859 14.3751 1.63778 0
523 1 Si 12.1987 14.8282 1.63279 0
524 1 Si 132.484 48.4443 1.6166 0
525 1 Si 126.576 50.0136 1.64928 0
526 1 Si 129.712 49.8453 1.60872 0
527 1 Si 134.261 51.0692 1.65071 0
528 1 Si 29.1023 9.10008 1.63086 0
529 1 Si 24.1115 11.2052 1.61785 0
530 1 Si 27.2567 11.79 1.62645 0
531 1 Si 32.5561 10.0453 1.61012 0
532 1 Si 43.1454 8.90319 1.6236 0
533 1 Si 39.8465 9.67963 1.6571 0
534 1 Si 151.317 49.8928 1.61079 0
535 1 Si 157.894 49.0368 1.61237 0
536 1 Si 154.745 50.3727 1.61706 0
537 1 Si 46.2896 10.0149 1.62238 0
538 1 Si 163.473 47.9234 1.63189 0
539 1 Si 161.289 50.2185 1.61384 0
540 1 Si 166.562 48.4837 1.62672 0
541 1 Si 65.0272 10.8527 1.63281 0
542 1 Si 59.7929 12.577 1.61302 0
543 1 Si 62.9313 13.2297 1.62844 0
544 1 Si 77.834 9.43681 1.63443 0
545 1 Si 84.515 11.8589 1.62776 0
546 1 Si 79.0339 12.6269 1.63065 0
547 1 Si 82.2711 14.1043 1.64091 0
548 1 Si 92.8886 9.94912 1.64111 0
549 1 Si 89.6475 10.2168 1.63234 0
550 1 Si 4.1571 43.195 1.60809 0
551 1 Si 200.69 47.2158 1.63501 0
552 1 Si 203.009 49.6242 1.61955 0
553 1 Si 3.36384 49.2102 1.62113 0
554 1 Si 4.97409 46.339 1.59786 0
555 1 Si 7.12877 36.5577 1.58837 0
556 1 Si 8.85271 39.3338 1.63222 0
557 1 Si 7.20837 42.1294 1.62257 0
558 1 Si 197.346 47.6127 1.5956 0
559 1 Si 94.8984 12.5622 1.65052 0
560 1 Si 105.159 51.0844 1.62323 0
561 1 Si 102.144 52.0957 1.62162 0
562 1 Si 99.2218 50.8229 1.62371 0
563 1 Si 98.8623 47.517 1.61633 0
564 1 Si 111.864 50.8536 1.63277 0
565 1 Si 19.782 13.4347 1.62654 0
566 1 Si 17.3011 15.3176 1.63029 0
567 1 Si 22.8518 14.1621 1.60866 0
568 1 Si 34.6533 12.7536 1.63352 0
569 1 Si 38.0546 12.5289 1.62538 0
570 1 Si 170.75 50.829 1.63217 0
571 1 Si 167.49 51.4501 1.58791 0
572 1 Si 45.6833 13.0969 1.63222 0
573 1 Si 47.6307 15.5558 1.61514 0
574 1 Si 53.4892 14.4408 1.62931 0
575 1 Si 50.7322 16.2325 1.63257 0
576 1 Si 176.194 52.06 1.61391 0
577 1 Si 173.06 53.0309 1.62376 0
578 1 Si 68.0697 12.0507 1.6052 0
579 1 Si 194.38 49.1058 1.63553 0
580 1 Si 187.9 51.9489 1.63506 0
581 1 Si 193.886 52.3206 1.62496 0
582 1 Si 190.811 53.6741 1.62716 0
583 1 Si 73.1824 13.0126 1.61087 0
584 1 Si 70.3136 14.4725 1.63266 0
585 1 Si 87.7577 12.7778 1.62785 0
586 1 Si 110.948 54.0262 1.60035 0
587 1 Si 105.961 54.1548 1.60302 0
588 1 Si 108.297 56.3125 1.64005 0
589 1 Si 114.122 54.7237 1.60504 0
590 1 Si 124.576 52.4802 1.59056 0
591 1 Si 120.043 55.1626 1.61789 0
592 1 Si 123.101 55.2965 1.64841 0
593 1 Si 8.07892 17.4643 1.61482 0
594 1 Si 13.1554 17.8489 1.6167 0
595 1 Si 10.5058 19.3861 1.6338 0
596 1 Si 129.671 52.8954 1.6085 0
597 1 Si 127.012 54.3184 1.62841 0
598 1 Si 27.7247 15.0929 1.61757 0
599 1 Si 24.8482 16.6662 1.63181 0
600 1 Si 33.4915 15.863 1.61582 0
601 1 Si 30.4111 16.9681 1.63358 0
602 1 Si 43.0082 14.805 1.61331 0
603 1 Si 39.8223 15.3102 1.62768 0
604 1 Si 44.9676 17.2725 1.61357 0
605 1 Si 164.191 52.1363 1.63034 0
606 1 Si 155.617 53.3348 1.6515 0
607 1 Si 158.175 55.1275 1.62779 0
608 1 Si 164.208 55.3084 1.62484 0
609 1 Si 161.128 56.2386 1.61494 0
610 1 Si 58.6139 15.5252 1.62498 0
611 1 Si 55.7799 16.7885 1.63606 0
612 1 Si 63.4296 16.4052 1.61221 0
613 1 Si 60.6295 17.8754 1.60834 0
614 1 Si 153.423 55.4993 1.60347 0
615 1 Si 150.589 56.6626 1.63466 0
616 1 Si 182.547 52.7796 1.62573 0
617 1 Si 185.504 54.0545 1.65295 0
618 1 Si 76.1918 14.2875 1.6241 0
619 1 Si 177.455 55.001 1.62845 0
620 1 Si 180.57 55.2421 1.62082 0
621 1 Si 93.0298 15.5286 1.62924 0
622 1 Si 89.6276 15.501 1.65033 0
623 1 Si 202.285 52.8727 1.62211 0
624 1 Si 2.2702 54.1744 1.61008 0
625 1 Si 4.85586 52.1855 1.61237 0
626 1 Si 94.0425 18.8135 1.62301 0
627 1 Si 97.3226 19.2851 1.62355 0
628 1 Si 196.346 54.5202 1.61512 0
629 1 Si 199.69 54.9856 1.6388 0
630 1 Si 18.241 18.5819 1.58632 0
631 1 Si 15.4498 19.9144 1.63085 0
632 1 Si 102.969 55.1675 1.60424 0
633 1 Si 127.067 57.3784 1.62241 0
634 1 Si 24.1267 19.8513 1.60613 0
635 1 Si 18.9464 21.9069 1.62813 0
636 1 Si 22.0095 22.2074 1.63629 0
637 1 Si 155.936 57.2745 1.62039 0
638 1 Si 38.6085 18.4444 1.62352 0
639 1 Si 35.3576 18.5922 1.62935 0
640 1 Si 172.48 56.2716 1.60474 0
641 1 Si 166.692 57.5227 1.60297 0
642 1 Si 169.975 58.3983 1.63816 0
643 1 Si 175.468 57.4986 1.60656 0
644 1 Si 56.2048 20.0887 1.62775 0
645 1 Si 50.9013 19.4373 1.61731 0
646 1 Si 53.4186 21.3734 1.62078 0
647 1 Si 70.7348 17.7543 1.63098 0
648 1 Si 65.282 18.9482 1.62205 0
649 1 Si 68.3162 19.837 1.63208 0
650 1 Si 76.4016 17.4456 1.62852 0
651 1 Si 73.6828 19.2275 1.60929 0
652 1 Si 191.15 57.0716 1.61598 0
653 1 Si 185.661 57.2481 1.59016 0
654 1 Si 189.957 60.4607 1.62634 0
655 1 Si 186.811 60.2658 1.64048 0
656 1 Si 84.304 16.9434 1.62404 0
657 1 Si 79.1695 19.0233 1.60533 0
658 1 Si 82.3339 19.3988 1.63592 0
659 1 Si 194.336 57.0645 1.61741 0
660 1 Si 87.565 18.065 1.62713 0
661 1 Si 113.752 57.9597 1.62073 0
662 1 Si 106.996 59.8435 1.63161 0
663 1 Si 111.78 60.5953 1.60625 0
664 1 Si 109.039 62.5373 1.62944 0
665 1 Si 116.453 59.5606 1.60645 0
666 1 Si 119.395 58.5257 1.63544 0
667 1 Si 124.171 58.2789 1.61893 0
668 1 Si 10.041 22.4218 1.62184 0
669 1 Si 15.1053 23.0212 1.61894 0
670 1 Si 12.3697 24.4235 1.61279 0
671 1 Si 25.7479 22.6332 1.61763 0
672 1 Si 30.6077 20.2447 1.6055 0
673 1 Si 28.8952 22.9788 1.62244 0
674 1 Si 142.478 61.6949 1.61428 0
675 1 Si 150.483 59.8033 1.62341 0
676 1 Si 147.556 61.0303 1.62876 0
677 1 Si 40.5166 21.2057 1.62601 0
678 1 Si 43.6524 20.1665 1.62452 0
679 1 Si 156.155 60.3445 1.61702 0
680 1 Si 153.186 61.4534 1.62564 0
681 1 Si 60.6391 21.0214 1.63294 0
682 1 Si 58.1424 22.8796 1.62521 0
683 1 Si 161.568 59.386 1.62209 0
684 1 Si 164.709 60.0738 1.63116 0
685 1 Si 159.139 61.5156 1.63841 0
686 1 Si 63.6669 21.6761 1.61376 0
687 1 Si 182.558 57.6567 1.61099 0
688 1 Si 176.329 60.607 1.63566 0
689 1 Si 179.255 61.8007 1.61892 0
690 1 Si 182.153 60.6916 1.61366 0
691 1 Si 78.0318 21.9506 1.61551 0
692 1 Si 74.865 22.2377 1.64391 0
693 1 Si 88.6581 21.3079 1.62824 0
694 1 Si 92.0356 21.7196 1.62896 0
695 1 Si 200.747 58.1519 1.62217 0
696 1 Si 195.253 60.0546 1.6353 0
697 1 Si 198.404 60.3194 1.63518 0
698 1 Si 3.28837 57.2366 1.62115 0
699 1 Si 6.62127 57.0622 1.61806 0
700 1 Si 7.79194 53.9085 1.61983 0
701 1 Si 0.820245 59.4413 1.64225 0
702 1 Si 17.5214 24.9576 1.57944 0
703 1 Si 101.913 58.1787 1.61832 0
704 1 Si 103.72 60.9122 1.61175 0
705 1 Si 123.907 61.3779 1.6144 0
706 1 Si 125.288 64.2083 1.64095 0
707 1 Si 128.409 64.6189 1.61316 0
708 1 Si 23.5414 24.9652 1.6045 0
709 1 Si 33.6468 21.3561 1.6116 0
710 1 Si 33.9795 24.6614 1.62775 0
711 1 Si 39.8776 24.6127 1.63155 0
712 1 Si 36.9468 26.393 1.63762 0
713 1 Si 48.9452 21.848 1.63638 0
714 1 Si 45.8903 22.3431 1.63346 0
715 1 Si 171.117 61.5925 1.62502 0
716 1 Si 166.008 63.0022 1.62067 0
717 1 Si 169.067 64.0177 1.63395 0
718 1 Si 174.106 62.9408 1.6301 0
719 1 Si 53.402 24.5423 1.63188 0
720 1 Si 50.3368 24.6605 1.623 0
721 1 Si 65.4037 24.2362 1.62703 0
722 1 Si 68.3757 23.0649 1.61636 0
723 1 Si 193.762 62.8881 1.62575 0
724 1 Si 190.717 63.9874 1.61389 0
725 1 Si 83.2987 22.4588 1.62344 0
726 1 Si 80.4774 23.9007 1.64797 0
727 1 Si 98.7598 58.7503 1.62997 0
728 1 Si 96.72 53.0394 1.62647 0
729 1 Si 96.4175 56.4369 1.6466 0
730 1 Si 114.576 62.0053 1.6098 0
731 1 Si 86.2479 23.7373 1.63445 0
732 1 Si 98.2867 22.5281 1.63132 0
733 1 Si 120.802 61.482 1.61803 0
734 1 Si 12.4309 27.5594 1.59826 0
735 1 Si 9.30828 28.4213 1.6301 0
736 1 Si 146.869 64.3406 1.63038 0
737 1 Si 142.096 65.3255 1.6322 0
738 1 Si 144.776 67.1075 1.61932 0
739 1 Si 30.7905 25.7068 1.6202 0
740 1 Si 45.379 25.437 1.62589 0
741 1 Si 42.5014 26.6617 1.62597 0
742 1 Si 152.398 64.451 1.62195 0
743 1 Si 149.578 65.895 1.6292 0
744 1 Si 159.493 64.6816 1.63259 0
745 1 Si 154.371 66.776 1.63088 0
746 1 Si 157.391 67.0392 1.62888 0
747 1 Si 58.366 26.3071 1.63255 0
748 1 Si 55.1234 27.197 1.62175 0
749 1 Si 164.864 65.9307 1.62776 0
750 1 Si 161.891 66.6923 1.6294 0
751 1 Si 64.493 27.292 1.62674 0
752 1 Si 61.185 28.4726 1.65582 0
753 1 Si 73.6647 25.2613 1.64103 0
754 1 Si 70.3118 25.5827 1.63314 0
755 1 Si 180.404 64.7608 1.61833 0
756 1 Si 175.21 66.0155 1.61491 0
757 1 Si 178.249 66.9551 1.62372 0
758 1 Si 79.4696 26.8721 1.62296 0
759 1 Si 76.1502 27.5418 1.62748 0
760 1 Si 184.654 62.6232 1.6156 0
761 1 Si 183.507 65.5933 1.63925 0
762 1 Si 93.187 24.9882 1.61782 0
763 1 Si 96.4957 25.438 1.61293 0
764 1 Si 198.709 63.4528 1.6334 0
765 1 Si 1.21347 62.753 1.62622 0
766 1 Si 201.566 64.6871 1.62299 0
767 1 Si 195.997 65.1168 1.6388 0
768 1 Si 15.7017 27.7414 1.62819 0
769 1 Si 114.611 65.0489 1.619 0
770 1 Si 120.361 64.6332 1.6521 0
771 1 Si 117.579 66.0499 1.61246 0
772 1 Si 23.4404 28.2192 1.64663 0
773 1 Si 17.2484 30.5243 1.6295 0
774 1 Si 20.6126 30.1244 1.60849 0
775 1 Si 112.089 66.9775 1.61783 0
776 1 Si 108.907 66.2425 1.62621 0
777 1 Si 29.7014 28.8991 1.62718 0
778 1 Si 26.4472 29.6816 1.61332 0
779 1 Si 123.002 66.4139 1.62028 0
780 1 Si 48.1758 26.8676 1.63451 0
781 1 Si 169.684 67.2277 1.63212 0
782 1 Si 174.533 69.1394 1.63399 0
783 1 Si 171.553 69.9448 1.63137 0
784 1 Si 166.824 68.4166 1.62474 0
785 1 Si 49.2187 29.8071 1.6429 0
786 1 Si 52.7275 29.6483 1.63017 0
787 1 Si 67.8441 27.9173 1.62386 0
788 1 Si 190.156 67.7822 1.62648 0
789 1 Si 195.542 68.2912 1.62903 0
790 1 Si 192.741 69.9838 1.63429 0
791 1 Si 85.6889 27.073 1.63911 0
792 1 Si 82.4467 28.3378 1.62522 0
793 1 Si 4.07913 64.3962 1.6409 0
794 1 Si 8.43631 59.8132 1.62766 0
795 1 Si 7.06874 62.904 1.62579 0
796 1 Si 101.551 63.5683 1.6278 0
797 1 Si 98.5881 62.0364 1.6223 0
798 1 Si 91.7031 28.0557 1.62725 0
799 1 Si 88.4365 29.0125 1.62928 0
800 1 Si 117.097 69.1394 1.62215 0
801 1 Si 113.881 69.604 1.6439 0
802 1 Si 96.9651 28.8335 1.61591 0
803 1 Si 8.31074 31.4534 1.6009 0
804 1 Si 129.099 67.8963 1.61834 0
805 1 Si 132.541 67.9511 1.63789 0
806 1 Si 31.5251 31.7942 1.6263 0
807 1 Si 26.3827 32.9339 1.62189 0
808 1 Si 29.3089 34.2885 1.61638 0
809 1 Si 139.464 67.503 1.61765 0
810 1 Si 37.2145 29.8621 1.61908 0
811 1 Si 34.9211 32.3108 1.61993 0
812 1 Si 149.653 69.0344 1.64941 0
813 1 Si 144.897 70.7375 1.62022 0
814 1 Si 147.995 71.7421 1.6391 0
815 1 Si 43.0419 29.8945 1.64382 0
816 1 Si 40.1708 31.465 1.6129 0
817 1 Si 152.696 69.379 1.62546 0
818 1 Si 46.1362 31.3316 1.64221 0
819 1 Si 156.911 70.1701 1.62359 0
820 1 Si 161.624 69.8104 1.61998 0
821 1 Si 159.345 71.9623 1.62773 0
822 1 Si 54.2784 32.4652 1.63534 0
823 1 Si 57.5223 33.2811 1.61676 0
824 1 Si 60.5919 31.9032 1.65097 0
825 1 Si 179.172 69.9689 1.64686 0
826 1 Si 176.555 71.6487 1.62889 0
827 1 Si 184.471 68.7602 1.62146 0
828 1 Si 182.126 71.0999 1.62832 0
829 1 Si 187.519 70.0427 1.63283 0
830 1 Si 75.3094 30.7452 1.63607 0
831 1 Si 68.7666 31.0118 1.62556 0
832 1 Si 72.0568 31.9181 1.62729 0
833 1 Si 200.931 67.864 1.62947 0
834 1 Si 198.324 69.8513 1.63815 0
835 1 Si 81.4272 31.4174 1.62718 0
836 1 Si 78.1793 32.569 1.64668 0
837 1 Si 0.708823 69.2078 1.6258 0
838 1 Si 3.52019 67.661 1.6251 0
839 1 Si 94.0294 30.4582 1.61138 0
840 1 Si 107.136 69.5368 1.63189 0
841 1 Si 103.515 69.7411 1.62261 0
842 1 Si 101.454 67.0473 1.63068 0
843 1 Si 123.032 69.6143 1.62435 0
844 1 Si 119.879 70.8018 1.64542 0
845 1 Si 15.4443 33.4151 1.60694 0
846 1 Si 9.52394 34.4038 1.62234 0
847 1 Si 12.6078 35.2929 1.62468 0
848 1 Si 20.9046 33.3278 1.64346 0
849 1 Si 18.1857 35.0749 1.63772 0
850 1 Si 126.386 70.2655 1.62819 0
851 1 Si 23.7553 34.8192 1.63396 0
852 1 Si 134.562 70.5906 1.62471 0
853 1 Si 137.964 70.5299 1.63992 0
854 1 Si 52.1109 34.8522 1.60799 0
855 1 Si 46.096 34.6374 1.61647 0
856 1 Si 49.0994 36.0078 1.63466 0
857 1 Si 154.321 71.9416 1.63165 0
858 1 Si 166.617 71.5393 1.63794 0
859 1 Si 163.605 72.1516 1.64241 0
860 1 Si 57.2964 36.5145 1.62385 0