ITEM: TIMESTEP
1775
ITEM: NUMBER OF ATOMS
15624
ITEM: BOX BOUNDS pp pp pp
0.0000000000000000e+00 2.0463839315674045e+02
0.0000000000000000e+00 1.7761327303223655e+02
-1.0000000000000000e+02 1.0000000000000000e+02
ITEM: ATOMS id type element x y z v_uncoordination
1 1 Si 129.517 33.4426 1.63221 0
2 1 Si 127.732 30.7074 1.62108 0
3 1 Si 128.183 36.432 1.61853 0
4 1 Si 122.34 36.2008 1.62116 0
5 1 Si 125.114 37.8014 1.63114 0
6 1 Si 124.354 30.4515 1.64317 0
7 1 Si 121.885 32.9173 1.6201 0
8 1 Si 132.818 33.0357 1.61992 0
9 1 Si 130.022 28.3367 1.61696 0
10 1 Si 132.968 29.7773 1.62955 0
11 1 Si 135.167 35.441 1.63512 0
12 1 Si 130.572 38.6289 1.62982 0
13 1 Si 133.815 38.4286 1.64518 0
14 1 Si 119.017 41.4009 1.63312 0
15 1 Si 119.688 38.166 1.6146 0
16 1 Si 116.397 43.4229 1.62496 0
17 1 Si 117.194 36.1176 1.60812 0
18 1 Si 114.561 38.2804 1.63321 0
19 1 Si 113.786 41.6253 1.62388 0
20 1 Si 121.607 43.223 1.62337 0
21 1 Si 124.067 40.9868 1.62225 0
22 1 Si 116.283 46.7134 1.60849 0
23 1 Si 121.405 46.5404 1.62328 0
24 1 Si 118.908 48.5655 1.61236 0
25 1 Si 0.501795 39.8562 1.61526 0
26 1 Si 3.03034 37.8305 1.62196 0
27 1 Si 202.259 38.6672 1.62676 0
28 1 Si 204.299 33.1558 1.64202 0
29 1 Si 202.158 35.5032 1.64279 0
30 1 Si 2.73857 34.5086 1.64052 0
31 1 Si 0.794488 43.0658 1.62873 0
32 1 Si 5.447 40.0146 1.6301 0
33 1 Si 4.07572 43.05 1.62956 0
34 1 Si 199.538 40.3868 1.63397 0
35 1 Si 199.726 43.6831 1.62345 0
36 1 Si 202.794 45.1454 1.62804 0
37 1 Si 107.067 5.12046 1.62611 0
38 1 Si 103.842 5.45699 1.6394 0
39 1 Si 108.792 7.76254 1.63803 0
40 1 Si 107.592 10.6939 1.63694 0
41 1 Si 104.432 10.9664 1.622 0
42 1 Si 102.438 8.38305 1.61274 0
43 1 Si 108.731 2.37928 1.61805 0
44 1 Si 102.286 2.68686 1.59617 0
45 1 Si 104.027 0.0850747 1.61276 0
46 1 Si 107.075 177.326 1.61242 0
47 1 Si 113.604 5.16707 1.63046 0
48 1 Si 111.91 7.89393 1.62689 0
49 1 Si 111.975 2.25344 1.63273 0
50 1 Si 116.728 6.27309 1.62966 0
51 1 Si 117.403 9.60832 1.62012 0
52 1 Si 112.322 11.1067 1.6311 0
53 1 Si 115.28 12.1569 1.62172 0
54 1 Si 118.965 3.87774 1.63124 0
55 1 Si 118.441 0.614329 1.61747 0
56 1 Si 112.942 176.735 1.62328 0
57 1 Si 116.071 176.004 1.62389 0
58 1 Si 122.191 4.52224 1.62301 0
59 1 Si 124.14 7.1988 1.6404 0
60 1 Si 120.107 11.4607 1.63292 0
61 1 Si 123.318 10.4887 1.61819 0
62 1 Si 123.548 1.56948 1.62907 0
63 1 Si 121.358 176.874 1.62459 0
64 1 Si 127.336 6.32293 1.62101 0
65 1 Si 128.567 3.2936 1.62476 0
66 1 Si 126.657 0.763745 1.6463 0
67 1 Si 135.816 6.12815 1.63399 0
68 1 Si 137.371 2.89274 1.62197 0
69 1 Si 141.676 6.22515 1.57587 0
70 1 Si 140.479 3.41512 1.6236 0
71 1 Si 142.092 9.24017 1.61933 0
72 1 Si 136.708 9.4286 1.63473 0
73 1 Si 139.592 11.0096 1.62707 0
74 1 Si 132.535 5.99657 1.62196 0
75 1 Si 131.763 2.77194 1.6215 0
76 1 Si 136.581 177.015 1.60426 0
77 1 Si 133.21 177.323 1.62992 0
78 1 Si 129.939 8.25609 1.62033 0
79 1 Si 144.745 5.51507 1.55233 0
80 1 Si 143.521 2.69488 1.64429 0
81 1 Si 145.095 8.55949 1.64551 0
82 1 Si 150.85 3.99639 1.64585 0
83 1 Si 150.183 7.26861 1.61034 0
84 1 Si 148.675 1.4033 1.61177 0
85 1 Si 147.939 9.68623 1.62711 0
86 1 Si 145.535 0.377624 1.63394 0
87 1 Si 154.149 3.39771 1.64915 0
88 1 Si 156.73 5.7087 1.63486 0
89 1 Si 155.731 8.81549 1.63555 0
90 1 Si 152.516 9.49189 1.64197 0
91 1 Si 154.77 0.148779 1.62322 0
92 1 Si 152.618 175.005 1.6357 0
93 1 Si 149.494 175.888 1.63286 0
94 1 Si 160.187 5.66792 1.62657 0
95 1 Si 160.893 2.61629 1.63292 0
96 1 Si 158.018 0.855835 1.63069 0
97 1 Si 163.022 7.55162 1.60982 0
98 1 Si 161.34 10.3928 1.62924 0
99 1 Si 158.073 11.1435 1.65053 0
100 1 Si 164.124 1.88512 1.62333 0
101 1 Si 162.486 176.789 1.61755 0
102 1 Si 159.471 175.786 1.62833 0
103 1 Si 167.447 2.22684 1.63055 0
104 1 Si 169.19 5.18434 1.62028 0
105 1 Si 166.537 7.59595 1.62104 0
106 1 Si 168.868 176.821 1.63373 0
107 1 Si 166.937 174.097 1.6313 0
108 1 Si 163.787 174.01 1.63302 0
109 1 Si 174.237 1.64557 1.63046 0
110 1 Si 172.959 5.05845 1.62565 0
111 1 Si 172.151 176.37 1.65638 0
112 1 Si 177.599 0.808611 1.64576 0
113 1 Si 180.414 2.65993 1.62401 0
114 1 Si 181.313 5.75958 1.62705 0
115 1 Si 175.534 8.02986 1.62152 0
116 1 Si 178.966 8.13297 1.61177 0
117 1 Si 178.563 175.227 1.61709 0
118 1 Si 175.256 170.959 1.62868 0
119 1 Si 178.241 171.956 1.63835 0
120 1 Si 172.61 172.896 1.63731 0
121 1 Si 183.456 1.48583 1.61483 0
122 1 Si 186.408 2.78771 1.60423 0
123 1 Si 184.737 5.66141 1.6287 0
124 1 Si 183.96 176.064 1.63455 0
125 1 Si 181.534 174.199 1.61624 0
126 1 Si 189.274 0.963134 1.64451 0
127 1 Si 186.684 8.2661 1.61986 0
128 1 Si 190.357 7.82717 1.63315 0
129 1 Si 192.94 5.41653 1.61598 0
130 1 Si 192.266 2.20537 1.62153 0
131 1 Si 186.48 174.25 1.61022 0
132 1 Si 189.42 175.252 1.62377 0
133 1 Si 0.152757 6.35936 1.61978 0
134 1 Si 3.52808 5.872 1.62857 0
135 1 Si 203.503 9.38839 1.61988 0
136 1 Si 1.8096 10.4231 1.61332 0
137 1 Si 4.54477 8.89284 1.59187 0
138 1 Si 202.068 4.62368 1.64127 0
139 1 Si 203.275 1.33464 1.6429 0
140 1 Si 5.97963 3.57345 1.6165 0
141 1 Si 4.8159 0.52415 1.61545 0
142 1 Si 1.65905 177.051 1.64242 0
143 1 Si 196.296 4.95022 1.62665 0
144 1 Si 199.029 6.6776 1.62908 0
145 1 Si 197.545 1.94598 1.62576 0
146 1 Si 200.253 0.210271 1.63115 0
147 1 Si 109.746 13.0513 1.62848 0
148 1 Si 119.168 14.6628 1.61777 0
149 1 Si 115.953 15.381 1.61434 0
150 1 Si 129.139 11.5981 1.63724 0
151 1 Si 125.807 12.8634 1.61834 0
152 1 Si 135.016 12.1974 1.64715 0
153 1 Si 131.94 13.4475 1.64035 0
154 1 Si 148.105 12.9824 1.60307 0
155 1 Si 151.369 12.5636 1.63371 0
156 1 Si 166.686 10.8773 1.62458 0
157 1 Si 163.768 12.482 1.62215 0
158 1 Si 169.413 12.5237 1.60837 0
159 1 Si 172.58 12.8693 1.62302 0
160 1 Si 175.508 11.4708 1.62655 0
161 1 Si 184.187 10.8092 1.62155 0
162 1 Si 180.669 11.0216 1.60645 0
163 1 Si 191.691 10.7854 1.63165 0
164 1 Si 185.964 13.5126 1.63425 0
165 1 Si 189.191 12.8933 1.59634 0
166 1 Si 198.018 10.0444 1.6252 0
167 1 Si 194.89 11.7512 1.61923 0
168 1 Si 194.888 0.254532 1.63939 0
169 1 Si 200.978 11.528 1.65004 0
170 1 Si 108.908 16.2118 1.63772 0
171 1 Si 105.637 16.4683 1.62519 0
172 1 Si 103.505 14.0167 1.62108 0
173 1 Si 124.67 16.2238 1.63013 0
174 1 Si 121.312 17.0848 1.63012 0
175 1 Si 140.326 14.1419 1.60333 0
176 1 Si 137.152 14.5749 1.62986 0
177 1 Si 146.367 15.9671 1.63854 0
178 1 Si 142.688 16.4618 1.64042 0
179 1 Si 153.63 14.9709 1.65204 0
180 1 Si 156.976 14.3049 1.63854 0
181 1 Si 168.832 15.6517 1.60047 0
182 1 Si 172.028 16.0118 1.62852 0
183 1 Si 178.4 13.5238 1.62111 0
184 1 Si 201.704 14.7826 1.61901 0
185 1 Si 2.31278 13.4175 1.61015 0
186 1 Si 0.125715 15.5793 1.60389 0
187 1 Si 114.326 18.4293 1.64855 0
188 1 Si 110.908 18.923 1.63801 0
189 1 Si 132.175 16.7475 1.62373 0
190 1 Si 126.638 18.9845 1.63584 0
191 1 Si 130.003 19.2846 1.62394 0
192 1 Si 135.395 17.1846 1.62677 0
193 1 Si 152.304 18.041 1.62952 0
194 1 Si 148.811 18.4734 1.62823 0
195 1 Si 162.793 15.6241 1.63445 0
196 1 Si 159.429 16.64 1.64506 0
197 1 Si 165.853 17.0049 1.63087 0
198 1 Si 179.424 17.131 1.6542 0
199 1 Si 173.95 18.5964 1.61572 0
200 1 Si 177.124 19.5474 1.62606 0
201 1 Si 185.169 16.7301 1.6197 0
202 1 Si 182.548 18.8509 1.6453 0
203 1 Si 190.582 15.7194 1.58952 0
204 1 Si 188.211 17.8573 1.63051 0
205 1 Si 193.687 14.8196 1.63662 0
206 1 Si 200.97 17.9752 1.63897 0
207 1 Si 195.155 17.5444 1.62129 0
208 1 Si 198.004 18.6878 1.60386 0
209 1 Si 5.30392 14.2469 1.61078 0
210 1 Si 6.62596 11.3341 1.64151 0
211 1 Si 119.675 20.0669 1.63136 0
212 1 Si 116.416 21.0994 1.63379 0
213 1 Si 124.944 21.8543 1.63271 0
214 1 Si 121.765 22.484 1.62824 0
215 1 Si 137.099 19.8361 1.62924 0
216 1 Si 140.493 19.1623 1.62392 0
217 1 Si 154.715 20.4918 1.62902 0
218 1 Si 158.162 19.834 1.6388 0
219 1 Si 166.282 20.1415 1.63628 0
220 1 Si 172.261 21.2894 1.62016 0
221 1 Si 169.11 21.7103 1.61294 0
222 1 Si 2.24587 17.9418 1.63543 0
223 1 Si 202.389 20.9481 1.61395 0
224 1 Si 0.901291 20.7263 1.62593 0
225 1 Si 5.43303 17.4129 1.63199 0
226 1 Si 103.895 19.1927 1.62084 0
227 1 Si 100.671 18.2044 1.62873 0
228 1 Si 100.354 14.8141 1.62138 0
229 1 Si 109.148 21.888 1.61425 0
230 1 Si 105.809 21.8967 1.62217 0
231 1 Si 115.56 24.5208 1.6128 0
232 1 Si 109.867 25.2001 1.62556 0
233 1 Si 112.877 26.6582 1.62934 0
234 1 Si 131.357 22.3688 1.61341 0
235 1 Si 126.107 24.8498 1.63412 0
236 1 Si 129.354 25.1254 1.64479 0
237 1 Si 134.724 22.2845 1.63356 0
238 1 Si 147.757 21.6572 1.63044 0
239 1 Si 141.699 22.0909 1.639 0
240 1 Si 144.752 23.0403 1.63358 0
241 1 Si 153.324 23.5909 1.65234 0
242 1 Si 149.969 24.0724 1.62461 0
243 1 Si 160.495 22.281 1.63971 0
244 1 Si 163.691 22.0083 1.60473 0
245 1 Si 177.554 22.9687 1.60828 0
246 1 Si 174.427 23.647 1.62614 0
247 1 Si 188.891 20.9052 1.61175 0
248 1 Si 183.462 22.3878 1.6404 0
249 1 Si 186.616 23.0789 1.60622 0
250 1 Si 194.279 20.5238 1.62629 0
251 1 Si 191.74 22.2571 1.62542 0
252 1 Si 197.148 21.6802 1.60115 0
253 1 Si 120.924 25.6543 1.6324 0
254 1 Si 117.878 26.8864 1.61567 0
255 1 Si 136.315 25.0088 1.62221 0
256 1 Si 139.421 24.3575 1.61328 0
257 1 Si 155.031 26.4569 1.6144 0
258 1 Si 160.59 25.606 1.62349 0
259 1 Si 158.158 27.6504 1.63332 0
260 1 Si 165.167 24.8262 1.62078 0
261 1 Si 168.293 24.7815 1.6267 0
262 1 Si 179.221 26.0898 1.63049 0
263 1 Si 182.459 25.7496 1.63473 0
264 1 Si 201.786 24.1504 1.6119 0
265 1 Si 198.622 24.4369 1.63073 0
266 1 Si 2.56279 23.3231 1.60833 0
267 1 Si 203.312 27.0482 1.63675 0
268 1 Si 1.61643 26.265 1.60382 0
269 1 Si 5.52276 24.1527 1.63478 0
270 1 Si 8.1557 19.2502 1.64326 0
271 1 Si 8.21174 22.5386 1.62604 0
272 1 Si 104.593 24.9354 1.61793 0
273 1 Si 101.326 25.477 1.64231 0
274 1 Si 98.0792 20.3337 1.62874 0
275 1 Si 98.4919 23.7609 1.62855 0
276 1 Si 107.111 27.103 1.62045 0
277 1 Si 123.769 27.1952 1.62351 0
278 1 Si 135.779 28.199 1.63905 0
279 1 Si 143.629 26.0573 1.62459 0
280 1 Si 140.662 27.1681 1.64076 0
281 1 Si 148.253 26.911 1.64353 0
282 1 Si 145.351 28.5952 1.63832 0
283 1 Si 153.203 29.1091 1.62468 0
284 1 Si 150.054 29.4335 1.64509 0
285 1 Si 163.395 27.3958 1.63635 0
286 1 Si 173.43 26.6266 1.6171 0
287 1 Si 170.309 27.2194 1.61324 0
288 1 Si 175.005 29.3868 1.61384 0
289 1 Si 178.203 29.5169 1.62732 0
290 1 Si 188.539 25.6409 1.62841 0
291 1 Si 184.175 28.7992 1.60786 0
292 1 Si 187.368 28.5112 1.60821 0
293 1 Si 191.75 25.4089 1.62437 0
294 1 Si 197.311 27.3042 1.63103 0
295 1 Si 194.049 27.6823 1.62283 0
296 1 Si 106.809 30.4474 1.62863 0
297 1 Si 104.355 32.4887 1.62824 0
298 1 Si 100.457 28.5061 1.60641 0
299 1 Si 101.538 31.4 1.62916 0
300 1 Si 116.736 30.0671 1.62024 0
301 1 Si 113.405 30.1472 1.61502 0
302 1 Si 118.493 32.9326 1.62715 0
303 1 Si 138.661 29.6151 1.63339 0
304 1 Si 159.531 30.7393 1.62386 0
305 1 Si 154.606 31.9085 1.62095 0
306 1 Si 157.501 33.0961 1.62381 0
307 1 Si 164.693 30.4824 1.61888 0
308 1 Si 170.22 30.4126 1.63404 0
309 1 Si 167.607 32.1912 1.63067 0
310 1 Si 199.407 29.7946 1.63739 0
311 1 Si 192.642 30.63 1.63172 0
312 1 Si 197.658 32.3884 1.6147 0
313 1 Si 194.606 33.1261 1.60574 0
314 1 Si 202.654 30.2266 1.62794 0
315 1 Si 4.53361 27.0951 1.62489 0
316 1 Si 108.437 33.3283 1.63294 0
317 1 Si 111.629 33.3541 1.64001 0
318 1 Si 143.32 31.2799 1.63883 0
319 1 Si 148.475 32.152 1.61544 0
320 1 Si 145.577 33.4296 1.63772 0
321 1 Si 162.29 32.6039 1.62119 0
322 1 Si 173.056 31.9489 1.61144 0
323 1 Si 184.434 32.203 1.63546 0
324 1 Si 178.967 32.9671 1.62758 0
325 1 Si 181.947 34.3599 1.62711 0
326 1 Si 189.451 30.9318 1.60776 0
327 1 Si 187.546 33.4834 1.61628 0
328 1 Si 107.121 36.4555 1.62255 0
329 1 Si 104.142 35.6679 1.62502 0
330 1 Si 9.38009 3.31133 1.60845 0
331 1 Si 12.2232 4.95246 1.64143 0
332 1 Si 11.433 8.27513 1.58726 0
333 1 Si 9.78495 11.229 1.62812 0
334 1 Si 10.4456 0.23042 1.62106 0
335 1 Si 7.57817 176.365 1.63534 0
336 1 Si 111.693 36.941 1.6281 0
337 1 Si 15.2279 3.08135 1.63097 0
338 1 Si 17.8945 4.78932 1.63289 0
339 1 Si 16.7563 7.79315 1.62589 0
340 1 Si 14.2578 9.68597 1.61059 0
341 1 Si 16.4148 177.534 1.60533 0
342 1 Si 13.3713 176.355 1.62673 0
343 1 Si 21.0801 4.20069 1.61895 0
344 1 Si 21.5149 7.35688 1.62367 0
345 1 Si 19.2726 9.54692 1.63279 0
346 1 Si 140.164 32.4335 1.6372 0
347 1 Si 23.6255 2.03375 1.64427 0
348 1 Si 22.7669 176.15 1.6481 0
349 1 Si 19.0935 175.363 1.62884 0
350 1 Si 26.6011 3.96497 1.60642 0
351 1 Si 26.7016 7.18399 1.62547 0
352 1 Si 24.1427 8.93505 1.64079 0
353 1 Si 150.163 34.7615 1.62936 0
354 1 Si 153.22 34.7121 1.61839 0
355 1 Si 29.9186 4.89044 1.62604 0
356 1 Si 29.2416 9.08553 1.63409 0
357 1 Si 32.0152 7.71522 1.61361 0
358 1 Si 31.8204 2.41082 1.63721 0
359 1 Si 30.8632 176.912 1.60451 0
360 1 Si 25.4428 173.54 1.62491 0
361 1 Si 28.9387 174.254 1.62448 0
362 1 Si 34.8483 3.5927 1.60923 0
363 1 Si 36.0386 0.727563 1.62456 0
364 1 Si 33.9153 176.117 1.60959 0
365 1 Si 44.7915 2.26233 1.6075 0
366 1 Si 42.6735 4.71589 1.60785 0
367 1 Si 47.3812 4.31741 1.63076 0
368 1 Si 46.5937 7.57339 1.62843 0
369 1 Si 43.3432 7.88147 1.60945 0
370 1 Si 39.7304 3.71024 1.62286 0
371 1 Si 39.1081 0.59718 1.62416 0
372 1 Si 43.8159 176.611 1.63464 0
373 1 Si 40.6117 175.438 1.6263 0
374 1 Si 37.2335 5.7162 1.63879 0
375 1 Si 168.543 35.462 1.62826 0
376 1 Si 162.953 35.8716 1.62072 0
377 1 Si 165.893 37.2885 1.63907 0
378 1 Si 50.5042 3.36447 1.6156 0
379 1 Si 51.5134 0.227301 1.6227 0
380 1 Si 46.2543 174.459 1.62607 0
381 1 Si 49.4903 175.238 1.62602 0
382 1 Si 52.9479 5.57619 1.61156 0
383 1 Si 52.0256 8.92943 1.61516 0
384 1 Si 48.8642 9.95921 1.61583 0
385 1 Si 173.896 35.1319 1.65085 0
386 1 Si 177.118 35.781 1.61507 0
387 1 Si 55.5699 3.38005 1.62598 0
388 1 Si 54.8435 0.0204066 1.61683 0
389 1 Si 63.5832 3.66698 1.62287 0
390 1 Si 64.8779 6.5477 1.63105 0
391 1 Si 61.0256 1.85363 1.63267 0
392 1 Si 59.7698 7.59684 1.62278 0
393 1 Si 58.7424 4.33767 1.62786 0
394 1 Si 62.815 8.84097 1.62559 0
395 1 Si 66.3182 2.30885 1.62099 0
396 1 Si 68.8824 4.00659 1.62462 0
397 1 Si 68.0316 7.00566 1.6393 0
398 1 Si 67.0461 176.986 1.62341 0
399 1 Si 64.8835 174.835 1.63775 0
400 1 Si 61.8526 176.158 1.65094 0
401 1 Si 71.0499 1.71674 1.64557 0
402 1 Si 74.6024 5.40923 1.61563 0
403 1 Si 74.1031 2.24279 1.61936 0
404 1 Si 73.0689 8.23788 1.63969 0
405 1 Si 70.0561 9.46003 1.63109 0
406 1 Si 70.0729 176.37 1.60973 0
407 1 Si 199.089 35.1293 1.61536 0
408 1 Si 194.719 36.3477 1.63038 0
409 1 Si 197.522 37.8782 1.60725 0
410 1 Si 77.7606 5.12924 1.62716 0
411 1 Si 78.9484 2.17997 1.63309 0
412 1 Si 76.5062 0.0588546 1.62074 0
413 1 Si 79.6342 7.66603 1.63888 0
414 1 Si 78.2019 10.4387 1.64254 0
415 1 Si 75.0567 10.6541 1.63848 0
416 1 Si 84.2179 4.60389 1.61186 0
417 1 Si 82.778 7.46333 1.62194 0
418 1 Si 82.2036 1.8869 1.64981 0
419 1 Si 5.49351 32.6915 1.62108 0
420 1 Si 6.24429 29.5925 1.6248 0
421 1 Si 87.3781 5.80764 1.63768 0
422 1 Si 89.676 8.39603 1.63486 0
423 1 Si 84.6802 9.95941 1.60309 0
424 1 Si 87.716 10.731 1.61621 0
425 1 Si 89.2786 3.35332 1.62892 0
426 1 Si 88.8167 0.202228 1.62573 0
427 1 Si 86.222 175.813 1.65081 0
428 1 Si 82.9065 176.287 1.62465 0
429 1 Si 106.815 39.9169 1.6318 0
430 1 Si 109.989 40.0168 1.62337 0
431 1 Si 92.2175 4.51233 1.6054 0
432 1 Si 94.0884 7.03313 1.62916 0
433 1 Si 92.7478 9.90233 1.62029 0
434 1 Si 93.9433 1.90605 1.59294 0
435 1 Si 91.9606 177.087 1.63111 0
436 1 Si 97.1914 6.18182 1.62949 0
437 1 Si 96.9704 2.82834 1.6 0
438 1 Si 100.372 0.200637 1.64484 0
439 1 Si 99.1786 8.89943 1.62525 0
440 1 Si 97.404 177.081 1.62549 0
441 1 Si 102.249 174.872 1.54852 0
442 1 Si 23.9331 12.0588 1.62664 0
443 1 Si 19.1643 12.6769 1.63911 0
444 1 Si 21.7603 14.3298 1.62736 0
445 1 Si 138.568 35.4191 1.63336 0
446 1 Si 29.3337 12.2019 1.60852 0
447 1 Si 26.5636 13.5567 1.63559 0
448 1 Si 145.475 36.6185 1.61373 0
449 1 Si 148.547 37.3855 1.62216 0
450 1 Si 37.6428 8.95269 1.63386 0
451 1 Si 34.5198 10.1121 1.64125 0
452 1 Si 154.898 37.3907 1.62667 0
453 1 Si 157.84 36.2827 1.63458 0
454 1 Si 40.8841 10.1484 1.62803 0
455 1 Si 171.414 37.293 1.63134 0
456 1 Si 58.7738 10.6781 1.61938 0
457 1 Si 53.2897 12.0267 1.61679 0
458 1 Si 56.3933 12.8356 1.63116 0
459 1 Si 64.0671 11.8457 1.60744 0
460 1 Si 61.118 12.869 1.61799 0
461 1 Si 189.271 36.301 1.62594 0
462 1 Si 182.025 37.7305 1.61765 0
463 1 Si 184.594 39.8811 1.62673 0
464 1 Si 187.611 38.9113 1.62249 0
465 1 Si 192.117 38.0644 1.63251 0
466 1 Si 69.3589 12.7051 1.62219 0
467 1 Si 66.4527 14.0805 1.64109 0
468 1 Si 79.4733 13.2953 1.62078 0
469 1 Si 84.9198 13.0719 1.62471 0
470 1 Si 82.3071 14.6414 1.62914 0
471 1 Si 94.7291 12.7216 1.63943 0
472 1 Si 98.1066 12.1843 1.63286 0
473 1 Si 129.36 41.5293 1.62012 0
474 1 Si 126.507 42.86 1.62963 0
475 1 Si 13.9861 12.835 1.62548 0
476 1 Si 11.1549 14.2613 1.61173 0
477 1 Si 140.177 38.4547 1.61705 0
478 1 Si 143.407 39.0606 1.63641 0
479 1 Si 16.611 14.4667 1.64772 0
480 1 Si 150.158 40.0843 1.62677 0
481 1 Si 153.415 40.2253 1.63116 0
482 1 Si 160.487 38.0271 1.62323 0
483 1 Si 34.0727 13.4554 1.62006 0
484 1 Si 31.1842 14.7469 1.63226 0
485 1 Si 171.713 40.7372 1.64494 0
486 1 Si 166.119 40.5136 1.63267 0
487 1 Si 168.781 42.3373 1.62558 0
488 1 Si 178.859 38.6695 1.62318 0
489 1 Si 177.854 41.8869 1.62782 0
490 1 Si 174.537 42.6474 1.63075 0
491 1 Si 48.3735 13.3011 1.63483 0
492 1 Si 41.9598 13.3393 1.62936 0
493 1 Si 45.2496 14.7645 1.62881 0
494 1 Si 51.4168 14.8024 1.61266 0
495 1 Si 74.2706 13.6718 1.63034 0
496 1 Si 71.5247 15.1423 1.62127 0
497 1 Si 8.6865 33.3462 1.62994 0
498 1 Si 10.1512 36.2559 1.62376 0
499 1 Si 8.66899 39.2626 1.637 0
500 1 Si 76.9884 15.199 1.62071 0
501 1 Si 104.739 42.8931 1.63841 0
502 1 Si 102.408 38.29 1.6425 0
503 1 Si 101.999 41.4443 1.64224 0
504 1 Si 87.9662 13.8314 1.623 0
505 1 Si 110.841 43.2857 1.62456 0
506 1 Si 93.4396 15.9093 1.63474 0
507 1 Si 90.1021 16.1858 1.62782 0
508 1 Si 135.559 41.2171 1.63757 0
509 1 Si 138.759 41.4737 1.62276 0
510 1 Si 16.5718 17.5769 1.6124 0
511 1 Si 11.018 17.6022 1.64222 0
512 1 Si 13.8821 19.2604 1.62448 0
513 1 Si 21.8088 17.5216 1.64292 0
514 1 Si 19.2209 19.3037 1.62189 0
515 1 Si 144.863 42.072 1.64145 0
516 1 Si 148.092 42.5014 1.63225 0
517 1 Si 26.6676 16.6045 1.62293 0
518 1 Si 24.5939 18.9169 1.63014 0
519 1 Si 39.0186 15.0011 1.59587 0
520 1 Si 35.8373 16.1469 1.63167 0
521 1 Si 160.539 41.305 1.64755 0
522 1 Si 154.965 43.0653 1.62484 0
523 1 Si 158.201 43.6276 1.63466 0
524 1 Si 39.811 17.9503 1.59596 0
525 1 Si 45.412 18.1427 1.64086 0
526 1 Si 42.5302 19.4226 1.61037 0
527 1 Si 163.524 42.4182 1.63571 0
528 1 Si 60.6657 15.9921 1.63143 0
529 1 Si 57.4773 15.948 1.61216 0
530 1 Si 66.1212 17.4484 1.63613 0
531 1 Si 62.9586 18.3325 1.64019 0
532 1 Si 185.182 43.1853 1.63013 0
533 1 Si 189.667 41.2552 1.60271 0
534 1 Si 188.304 44.0458 1.60681 0
535 1 Si 77.0874 18.2935 1.63163 0
536 1 Si 82.7883 17.7264 1.61752 0
537 1 Si 80.0559 19.2525 1.60877 0
538 1 Si 179.855 44.6537 1.61234 0
539 1 Si 183.133 45.7603 1.63422 0
540 1 Si 192.768 41.2742 1.62855 0
541 1 Si 94.9501 18.9973 1.63266 0
542 1 Si 131.092 44.1213 1.63035 0
543 1 Si 134.194 44.1372 1.63859 0
544 1 Si 140.107 44.5657 1.63559 0
545 1 Si 143.327 44.9884 1.64895 0
546 1 Si 29.6246 17.5032 1.62846 0
547 1 Si 126.296 45.9897 1.61961 0
548 1 Si 129.314 46.6781 1.63377 0
549 1 Si 37.6056 20.1413 1.59314 0
550 1 Si 34.6147 19.3355 1.64808 0
551 1 Si 149.66 45.3115 1.63457 0
552 1 Si 152.857 45.5409 1.62296 0
553 1 Si 52.7971 18.0612 1.63188 0
554 1 Si 47.4687 20.7267 1.61895 0
555 1 Si 50.7638 20.6867 1.62623 0
556 1 Si 174.348 45.9486 1.62911 0
557 1 Si 177.5 46.9248 1.61753 0
558 1 Si 167.44 45.364 1.62036 0
559 1 Si 171.801 48.1879 1.61504 0
560 1 Si 168.46 48.4128 1.63179 0
561 1 Si 56.1894 18.9268 1.63036 0
562 1 Si 71.5435 18.4485 1.63503 0
563 1 Si 68.5619 19.8496 1.64172 0
564 1 Si 74.4203 20.1197 1.63905 0
565 1 Si 193.965 44.2724 1.63613 0
566 1 Si 197.035 45.628 1.61399 0
567 1 Si 109.379 46.5764 1.62918 0
568 1 Si 106.421 48.3083 1.61568 0
569 1 Si 103.638 46.33 1.63241 0
570 1 Si 85.256 19.6538 1.64245 0
571 1 Si 88.3482 18.9264 1.63517 0
572 1 Si 135.331 47.1197 1.63941 0
573 1 Si 138.503 47.4505 1.64869 0
574 1 Si 144.871 47.9442 1.62069 0
575 1 Si 148.053 48.0392 1.62535 0
576 1 Si 159.131 46.7797 1.62632 0
577 1 Si 153.986 48.4963 1.62545 0
578 1 Si 157.046 49.1617 1.6433 0
579 1 Si 18.5975 22.4078 1.62807 0
580 1 Si 15.2852 22.2247 1.62847 0
581 1 Si 164.226 45.5259 1.62249 0
582 1 Si 162.12 47.9502 1.63248 0
583 1 Si 25.9989 21.7596 1.63928 0
584 1 Si 20.79 24.8918 1.63709 0
585 1 Si 24.2424 24.6269 1.6393 0
586 1 Si 29.1221 20.646 1.62856 0
587 1 Si 40.3168 21.6375 1.65323 0
588 1 Si 46.4375 23.9139 1.63068 0
589 1 Si 40.5453 24.7093 1.61463 0
590 1 Si 43.621 25.7186 1.62195 0
591 1 Si 191.042 45.7588 1.62939 0
592 1 Si 184.628 48.9757 1.62358 0
593 1 Si 191.128 48.9081 1.62885 0
594 1 Si 187.859 49.7971 1.62975 0
595 1 Si 62.0813 21.5237 1.62176 0
596 1 Si 58.5889 21.6316 1.64118 0
597 1 Si 68.1488 23.2861 1.62168 0
598 1 Si 64.7172 23.8766 1.63648 0
599 1 Si 111.157 49.2894 1.61611 0
600 1 Si 114.273 49.1946 1.6337 0
601 1 Si 80.6958 22.2981 1.62183 0
602 1 Si 83.8179 22.5039 1.62512 0
603 1 Si 92.9041 21.5661 1.62442 0
604 1 Si 89.7285 21.7389 1.62207 0
605 1 Si 124.124 48.2266 1.63701 0
606 1 Si 93.0522 24.7804 1.62564 0
607 1 Si 95.928 25.9732 1.62141 0
608 1 Si 130.303 49.6036 1.63734 0
609 1 Si 133.44 49.7261 1.63869 0
610 1 Si 13.635 24.9802 1.62664 0
611 1 Si 10.3521 24.9984 1.64382 0
612 1 Si 139.323 50.6064 1.62737 0
613 1 Si 144.676 51.2344 1.62596 0
614 1 Si 141.849 52.569 1.63346 0
615 1 Si 149.375 50.9695 1.61703 0
616 1 Si 152.499 51.3144 1.62469 0
617 1 Si 32.1713 21.6769 1.63725 0
618 1 Si 172.396 51.383 1.62824 0
619 1 Si 177.893 50.1009 1.62364 0
620 1 Si 175.427 52.1361 1.6338 0
621 1 Si 166.173 51.0295 1.63342 0
622 1 Si 170.42 53.9383 1.61283 0
623 1 Si 167.208 54.1002 1.62107 0
624 1 Si 183.313 52.1114 1.63306 0
625 1 Si 180.187 52.2966 1.62828 0
626 1 Si 51.6471 23.8375 1.61692 0
627 1 Si 49.0379 25.7889 1.631 0
628 1 Si 57.5209 24.7751 1.6279 0
629 1 Si 54.3876 25.476 1.62582 0
630 1 Si 197.492 48.9948 1.60808 0
631 1 Si 194.333 50.1262 1.621 0
632 1 Si 75.2745 23.308 1.61315 0
633 1 Si 70.6131 25.9996 1.63105 0
634 1 Si 73.9645 26.3074 1.62309 0
635 1 Si 203.158 48.5424 1.6159 0
636 1 Si 200.55 50.837 1.62477 0
637 1 Si 1.54493 49.916 1.62901 0
638 1 Si 4.50842 48.7142 1.63106 0
639 1 Si 5.71344 45.8226 1.63414 0
640 1 Si 78.3376 24.32 1.61261 0
641 1 Si 106.87 51.811 1.62689 0
642 1 Si 110.158 52.3967 1.6123 0
643 1 Si 84.9819 25.4245 1.6235 0
644 1 Si 88.142 24.5838 1.63503 0
645 1 Si 115.168 52.2768 1.60024 0
646 1 Si 118.309 51.7954 1.63483 0
647 1 Si 125.056 51.2967 1.65086 0
648 1 Si 128.199 51.9775 1.64505 0
649 1 Si 134.304 52.7646 1.63915 0
650 1 Si 137.373 53.1406 1.63209 0
651 1 Si 15.6001 27.661 1.62491 0
652 1 Si 18.9763 27.7101 1.63529 0
653 1 Si 147.228 53.2849 1.61124 0
654 1 Si 32.147 24.9597 1.62953 0
655 1 Si 26.276 27.2686 1.63108 0
656 1 Si 29.4955 26.9141 1.61881 0
657 1 Si 162.828 51.1521 1.62234 0
658 1 Si 157.479 52.3202 1.63157 0
659 1 Si 160.437 53.5818 1.64677 0
660 1 Si 38.0342 26.7411 1.60528 0
661 1 Si 34.7947 26.9042 1.61477 0
662 1 Si 42.8301 28.9491 1.62143 0
663 1 Si 39.6419 29.5669 1.60594 0
664 1 Si 188.474 52.8414 1.63863 0
665 1 Si 184.085 55.4017 1.62972 0
666 1 Si 187.15 55.701 1.63281 0
667 1 Si 194.418 53.2664 1.65151 0
668 1 Si 191.385 53.7835 1.6212 0
669 1 Si 58.7809 27.8161 1.62095 0
670 1 Si 64.1994 27.1734 1.61906 0
671 1 Si 61.6 29.2692 1.63481 0
672 1 Si 79.2924 27.396 1.60795 0
673 1 Si 82.6563 27.8738 1.63198 0
674 1 Si 104.603 54.4302 1.62362 0
675 1 Si 101.224 53.5771 1.6315 0
676 1 Si 100.197 47.6284 1.61853 0
677 1 Si 98.8655 50.7422 1.63208 0
678 1 Si 90.44 26.7198 1.63216 0
679 1 Si 112.815 54.5305 1.63833 0
680 1 Si 94.8595 29.1748 1.62616 0
681 1 Si 97.7715 30.0764 1.60365 0
682 1 Si 9.03493 27.9613 1.6282 0
683 1 Si 10.6161 30.6756 1.62198 0
684 1 Si 13.841 30.4178 1.64408 0
685 1 Si 120.091 54.4619 1.62315 0
686 1 Si 123.236 53.9106 1.61528 0
687 1 Si 25.9228 30.587 1.62775 0
688 1 Si 20.3257 30.7226 1.61076 0
689 1 Si 23.2082 32.2991 1.63438 0
690 1 Si 129.363 54.9368 1.64151 0
691 1 Si 132.503 55.393 1.64537 0
692 1 Si 30.5762 29.9033 1.62684 0
693 1 Si 33.7016 29.9569 1.62024 0
694 1 Si 154.583 53.7503 1.63059 0
695 1 Si 48.9445 29.0368 1.6228 0
696 1 Si 44.1813 31.9882 1.62147 0
697 1 Si 47.3144 31.8273 1.63404 0
698 1 Si 138.303 56.1849 1.63945 0
699 1 Si 141.382 55.7372 1.61216 0
700 1 Si 175.983 55.2615 1.62858 0
701 1 Si 179.092 55.2863 1.62673 0
702 1 Si 54.1526 28.6606 1.62469 0
703 1 Si 51.6962 30.5654 1.63098 0
704 1 Si 171.118 57.087 1.62362 0
705 1 Si 174.166 57.936 1.64465 0
706 1 Si 56.7831 30.3405 1.62469 0
707 1 Si 66.6974 29.1882 1.62065 0
708 1 Si 69.8956 29.2142 1.6184 0
709 1 Si 201.345 54.6232 1.60858 0
710 1 Si 196.462 55.6491 1.57451 0
711 1 Si 197.146 58.7632 1.58182 0
712 1 Si 200.051 57.9767 1.60646 0
713 1 Si 76.3271 28.883 1.6321 0
714 1 Si 2.17625 53.0906 1.64461 0
715 1 Si 204.57 55.4278 1.62555 0
716 1 Si 5.37465 53.5889 1.63501 0
717 1 Si 6.90541 50.8475 1.63258 0
718 1 Si 191.535 56.826 1.64027 0
719 1 Si 194.311 57.8592 1.5499 0
720 1 Si 113.719 57.9007 1.62561 0
721 1 Si 119.447 57.6924 1.62288 0
722 1 Si 116.823 59.6378 1.62694 0
723 1 Si 83.8469 30.9183 1.62967 0
724 1 Si 89.7073 29.8696 1.62936 0
725 1 Si 87.0087 31.6598 1.62152 0
726 1 Si 124.406 56.8725 1.62949 0
727 1 Si 127.479 57.4921 1.63567 0
728 1 Si 105.462 57.9131 1.6228 0
729 1 Si 108.069 59.9282 1.626 0
730 1 Si 111.353 60.193 1.62428 0
731 1 Si 133.641 58.389 1.64288 0
732 1 Si 136.767 58.9901 1.62594 0
733 1 Si 28.6351 32.4164 1.61906 0
734 1 Si 154.179 56.9693 1.64003 0
735 1 Si 148.131 56.402 1.63372 0
736 1 Si 150.974 58.0001 1.61658 0
737 1 Si 38.3584 32.6204 1.62065 0
738 1 Si 35.0911 32.853 1.62485 0
739 1 Si 160.21 56.9493 1.62789 0
740 1 Si 157.186 58.5478 1.6209 0
741 1 Si 165.984 57.1947 1.61914 0
742 1 Si 163.036 58.7557 1.62462 0
743 1 Si 39.878 35.5296 1.6245 0
744 1 Si 43.1164 35.1827 1.62819 0
745 1 Si 168.617 59.1399 1.62509 0
746 1 Si 66.1763 32.2406 1.62091 0
747 1 Si 61.1894 32.6338 1.63503 0
748 1 Si 63.8195 34.2663 1.63013 0
749 1 Si 180.071 58.2318 1.62291 0
750 1 Si 183.164 58.5509 1.6081 0
751 1 Si 76.4238 32.3079 1.62497 0
752 1 Si 71.1108 32.2689 1.64078 0
753 1 Si 73.6965 34.1734 1.63238 0
754 1 Si 82.2068 33.7451 1.61771 0
755 1 Si 79.0604 34.3541 1.6419 0
756 1 Si 188.894 58.3101 1.63367 0
757 1 Si 92.4603 31.4962 1.61245 0
758 1 Si 15.2175 33.2993 1.63506 0
759 1 Si 18.4024 33.3053 1.62627 0
760 1 Si 103.607 60.7361 1.62045 0
761 1 Si 100.608 59.8754 1.63732 0
762 1 Si 100.069 56.6317 1.62898 0
763 1 Si 33.3304 35.6313 1.63986 0
764 1 Si 29.9978 35.407 1.63951 0
765 1 Si 122.29 59.2337 1.62645 0
766 1 Si 128.552 60.4837 1.64028 0
767 1 Si 131.709 60.9236 1.64667 0
768 1 Si 51.736 33.7497 1.6383 0
769 1 Si 48.7791 34.7211 1.63079 0
770 1 Si 142.642 58.6151 1.6341 0
771 1 Si 145.778 58.5503 1.6099 0
772 1 Si 56.723 33.5287 1.63725 0
773 1 Si 54.3079 35.5662 1.61363 0
774 1 Si 68.6396 34.1723 1.6311 0
775 1 Si 175.266 61.0128 1.62787 0
776 1 Si 168.647 62.4458 1.61618 0
777 1 Si 174.227 64.1514 1.63139 0
778 1 Si 171.017 64.7541 1.62359 0
779 1 Si 178.428 60.8881 1.61675 0
780 1 Si 87.0776 34.9116 1.63171 0
781 1 Si 84.2509 36.2831 1.62129 0
782 1 Si 195.191 61.0105 1.56727 0
783 1 Si 91.9864 34.7638 1.64132 0
784 1 Si 89.5344 36.9723 1.62051 0
785 1 Si 1.2987 58.4199 1.60413 0
786 1 Si 0.606359 61.6405 1.62925 0
787 1 Si 199.694 61.5033 1.61533 0
788 1 Si 202.455 63.0337 1.62385 0
789 1 Si 98.894 32.9271 1.60919 0
790 1 Si 4.54295 58.5718 1.61357 0
791 1 Si 7.03651 56.3139 1.64322 0
792 1 Si 107.273 63.0612 1.61321 0
793 1 Si 104.254 64.0311 1.61806 0
794 1 Si 112.418 63.3731 1.60854 0
795 1 Si 117.869 63.1241 1.63769 0
796 1 Si 115.262 65.1992 1.63159 0
797 1 Si 13.4584 36.0152 1.63097 0
798 1 Si 123.238 62.3261 1.64162 0
799 1 Si 126.429 62.8852 1.6287 0
800 1 Si 20.0271 36.0349 1.62524 0
801 1 Si 23.1939 35.6128 1.61475 0
802 1 Si 138.014 62.0448 1.62938 0
803 1 Si 141.226 61.5406 1.6291 0
804 1 Si 149.451 60.8884 1.63586 0
805 1 Si 146.316 61.6696 1.59964 0
806 1 Si 157.152 61.8665 1.63234 0
807 1 Si 151.072 63.5251 1.64106 0
808 1 Si 154.304 63.5142 1.60152 0
809 1 Si 34.9511 38.5434 1.64603 0
810 1 Si 38.2976 38.4852 1.62023 0
811 1 Si 162.992 62.1827 1.62599 0
812 1 Si 160 63.6674 1.62757 0
813 1 Si 44.797 38.0448 1.62735 0
814 1 Si 48.0558 37.8501 1.63297 0
815 1 Si 165.791 64.1099 1.62539 0
816 1 Si 59.2841 35.3567 1.60811 0
817 1 Si 67.8229 37.1825 1.61562 0
818 1 Si 64.687 37.2949 1.62158 0
819 1 Si 189.484 61.3698 1.62667 0
820 1 Si 183.762 61.7068 1.63065 0
821 1 Si 186.718 62.9534 1.64345 0
822 1 Si 73.5103 37.515 1.63151 0
823 1 Si 68.7382 40.2176 1.63372 0
824 1 Si 71.8719 40.3936 1.62334 0
825 1 Si 78.928 37.5981 1.62399 0
826 1 Si 76.2037 39.1436 1.61954 0
827 1 Si 192.486 62.5919 1.63954 0
828 1 Si 97.4477 35.5873 1.63223 0
829 1 Si 94.5075 36.5599 1.62229 0
830 1 Si 2.77957 64.0454 1.60928 0
831 1 Si 4.97865 61.7143 1.62002 0
832 1 Si 15.4101 38.582 1.63175 0
833 1 Si 18.6371 38.8845 1.62725 0
834 1 Si 109.696 65.1102 1.62841 0
835 1 Si 121.064 64.7734 1.6278 0
836 1 Si 28.2603 38.1914 1.64103 0
837 1 Si 24.9993 38.3904 1.63068 0
838 1 Si 132.946 63.8412 1.61582 0
839 1 Si 136.018 64.7511 1.60249 0
840 1 Si 33.0457 41.2475 1.62554 0
841 1 Si 29.8412 41.0251 1.64114 0
842 1 Si 40.2025 41.2239 1.63005 0
843 1 Si 43.5135 41.0402 1.63629 0
844 1 Si 143.666 63.6143 1.64276 0
845 1 Si 55.3435 38.6354 1.62911 0
846 1 Si 50.13 40.4159 1.6179 0
847 1 Si 53.341 41.1777 1.62385 0
848 1 Si 58.6134 38.6071 1.62788 0
849 1 Si 180.799 63.0082 1.6322 0
850 1 Si 179.763 65.9823 1.62234 0
851 1 Si 176.573 66.5407 1.61361 0
852 1 Si 84.1038 39.5635 1.63074 0
853 1 Si 80.9831 40.0689 1.60935 0
854 1 Si 89.4951 40.3707 1.63985 0
855 1 Si 86.533 41.8473 1.62187 0
856 1 Si 198.618 64.7496 1.61401 0
857 1 Si 201.563 66.0644 1.60756 0
858 1 Si 193.082 65.7673 1.63997 0
859 1 Si 196.117 67.0302 1.63783 0
860 1 Si 99.3934 37.9305 1.60806 0