LAMMPS data file via write_data, version 2 Aug 2023, timestep = 161, units = metal

15600 atoms
2 atom types

7.704004120353656 195.75722601487905 xlo xhi
7.3116353537958405 171.03402258233768 ylo yhi
-100 100 zlo zhi

Masses

1 28.085
2 15.999

Atoms # full

6675 1 1 0 7.73900308030597 7.977496095218909 -1.6413895255237025 0 0 0
9416 1 2 0 11.801502027327004 7.786935569604757 -2.1919385588893725 0 0 0
6681 1 1 0 13.33619890010633 8.106141250988909 -1.644002182420874 0 0 0
9414 1 2 0 13.888133842395158 9.543638312240418 -2.2522566379844573 0 0 0
9707 1 2 0 16.93682538867656 7.715157347014956 -2.223488586975891 0 1 0
6879 1 1 0 18.319796284221738 8.460686127442075 -1.6484435627557863 0 0 0
6680 1 1 0 14.724150050929206 10.833790141341561 -1.6467818115101849 0 0 0
9415 1 2 0 16.259997058504343 10.971538443786603 -2.2174770067209684 0 0 0
6878 1 1 0 17.754630107994213 11.385225960603618 -1.6439984932377254 0 0 0
9705 1 2 0 18.606706718959114 10.031847074567617 -2.149664741803575 0 0 0
9412 1 2 0 14.011427693800806 12.161927396711091 -2.2833503906621786 0 0 0
13379 1 2 0 18.27862387208142 8.442557662339373 -1.610218943596064e-07 0 0 0
13180 1 2 0 14.712824789013132 10.79415005001836 2.9956306111461695e-07 0 0 0
9708 1 2 0 19.55805662336598 7.56632595414536 -2.2521099778652567 0 0 0
9722 1 2 0 22.15728466950285 7.430374567722098 -2.228887947533127 0 0 0
6888 1 1 0 23.419506483327876 8.338418796544433 -1.6421595896391235 0 0 0
6886 1 1 0 24.03692796700653 11.367996639970672 -1.6493870441398493 0 0 0
9719 1 2 0 23.471499666525823 9.901780360120364 -2.217013703658315 0 0 0
9718 1 2 0 23.00571507128773 12.560832574064197 -2.203888362974652 0 0 0
13388 1 2 0 23.322387599173457 8.402590196733174 1.1233886847128627e-06 0 0 0
9723 1 2 0 24.801193592093544 7.572487415394205 -2.140747523649736 0 1 0
9735 1 2 0 29.050056699832837 8.182513397822015 -2.217310530908322 0 0 0
9720 1 2 0 25.59388587026666 11.610358253565238 -2.2068202846240386 0 0 0
9729 1 2 0 28.18485426677064 10.671644891410255 -2.208236997474885 0 0 0
6892 1 1 0 27.1456637671021 11.838057779681405 -1.6468386874030214 0 0 0
6896 1 1 0 29.412460072069777 9.69998352342342 -1.647888210447729 0 0 0
13392 1 2 0 27.12154666574223 11.826586850529537 -1.704814232879145e-07 0 0 0
9736 1 2 0 30.921112096915408 10.191243198146497 -2.191609206710331 0 0 0
6899 1 1 0 32.17899617504354 11.154998945342566 -1.6471217413810957 0 0 0
9741 1 2 0 33.686800067907264 10.71942888539175 -2.210600941535457 0 0 0
6901 1 1 0 35.195351872758415 10.284896621431528 -1.6498498534077968 0 0 0
13401 1 2 0 35.216868921151715 10.34108153575758 -5.1519844992387954e-08 0 0 0
9740 1 2 0 31.93524968478376 12.688361481743133 -2.218427952632834 0 0 0
9743 1 2 0 35.400740174471736 8.729304376509978 -2.186755575502101 0 0 0
9760 1 2 0 40.19273802976054 8.017070624167356 -2.215653442076548 0 0 0
9744 1 2 0 36.43629938384745 11.267433343124527 -2.242329197560314 0 0 0
9752 1 2 0 39.15204255180872 10.894067358582106 -2.0957194646930883 0 0 0
6910 1 1 0 40.646960948777355 11.376136919153536 -1.5231447321244984 0 0 0
6906 1 1 0 37.86955031128669 11.878228812930061 -1.6238692178104623 0 0 0
6911 1 1 0 41.65138101281973 8.458329500093464 -1.5266116023093192 0 0 0
9761 1 2 0 43.115446012615024 8.139405890833814 -2.278129702544546 0 0 0
6917 1 1 0 44.66065401037346 8.290126544611237 -1.6376294032703835 0 0 0
9767 1 2 0 45.683214408931875 9.466780650843031 -2.2511823548892087 0 0 0
9758 1 2 0 41.66774123782957 10.09938778081601 -1.5136429645326164 0 0 0
9759 1 2 0 41.56310636729031 12.52938262569257 -2.323165561325958 0 0 0
13413 1 2 0 42.9506773516361 12.56146465473307 1.974012816808663e-07 0 0 0
9764 1 2 0 44.381707795536165 12.675114857334693 -2.2955729440888186 0 0 0
13417 1 2 0 44.48056181558688 8.483273240330517 -1.1924194250716027e-07 0 0 0
13411 1 2 0 41.69938583007596 7.79095915572093 -1.1086136826252506e-06 0 0 0
9766 1 2 0 46.83876148930338 11.696772538881683 -1.5507226442171773 0 0 0
9772 1 2 0 51.132469075454 9.181350315359241 -2.207316348292093 0 0 0
6915 1 1 0 47.06344844938185 10.077123024898208 -1.5341503296561585 0 0 0
6918 1 1 0 50.07897421471248 10.326543969579452 -1.651541597652995 0 0 0
9768 1 2 0 48.5663938199831 9.90235237177302 -2.243950339928949 0 0 0
9771 1 2 0 50.67834170933862 11.783814852440383 -2.2006753956086764 0 0 0
13415 1 2 0 47.1624837845833 9.446212406301044 -1.9738262589062087e-07 0 0 0
13418 1 2 0 50.0220288578925 10.368579750618908 -1.6313569359152015e-07 0 0 0
6921 1 1 0 52.273590707898656 8.122410271840787 -1.6480129390524096 0 0 0
9777 1 2 0 53.75722720052418 8.624513201769517 -2.2227133893545257 0 0 0
6925 1 1 0 55.270005868085704 9.012836142885973 -1.6498887597893914 0 0 0
9784 1 2 0 56.39775796185095 7.9301846995273095 -2.241133515260896 0 0 0
6926 1 1 0 57.00387423037294 11.511896299824487 -1.6481526707156926 0 0 0
9783 1 2 0 55.78615616010007 10.500399200534074 -2.179944672713507 0 0 0
13426 1 2 0 57.03198740968628 11.53456367571201 -3.815977697544286e-07 0 0 0
6935 1 1 0 61.165142949408434 7.803757067287487 -1.5262522699315983 0 0 0
9797 1 2 0 60.36796371473058 9.039929386239528 -2.285637195711289 0 0 0
9786 1 2 0 58.46756042403922 10.986886497069927 -2.2392761016060176 0 0 0
6934 1 1 0 59.94629800511695 10.51774642666485 -1.6492260963398697 0 0 0
9798 1 2 0 61.124384927767395 11.526646174093353 -2.205661818200294 0 0 0
6937 1 1 0 62.48794966111857 12.27113482942938 -1.6511308044123678 0 0 0
13437 1 2 0 62.530864054629824 12.261555303827919 -4.983450226260992e-07 0 0 0
13434 1 2 0 59.84429348786459 10.522077758011832 -3.9849669180627186e-07 0 0 0
6941 1 1 0 63.89105824998958 7.453854195641952 -1.5227313207772974 0 0 0
9807 1 2 0 63.63559173200786 9.092448732955004 -1.4427364397277689 0 0 0
9808 1 2 0 66.00524521163531 9.521836625371812 -2.2094253888656636 0 0 0
6952 1 1 0 67.41470871393861 8.763823780864287 -1.6556642964062882 0 0 0
9828 1 2 0 68.273448054788 7.389998257663698 -2.129692069852992 0 0 0
9803 1 2 0 63.90765361919438 11.584877321238539 -2.2368344470695516 0 0 0
6940 1 1 0 64.74332969048535 10.325533079138383 -1.503386034764252 0 0 0
9817 1 2 0 68.38765708434663 9.871238844531263 -2.403341884245294 0 0 0
9816 1 2 0 67.82754486101994 12.496668192689617 -2.1722976655515174 0 0 0
13452 1 2 0 67.25034903430573 8.591109186586776 -6.124545585555034e-07 0 0 0
13445 1 2 0 68.12334707915315 11.132061636459168 1.3319054498961745e-07 0 0 0
6945 1 1 0 68.72856030041989 11.221488702139752 -1.533461174697148 0 0 0
9812 1 2 0 70.35189868725993 10.87210841507549 -1.4360495099868174 0 0 0
6943 1 1 0 71.877609882196 11.477134691805876 -1.5100738202122812 0 0 0
9813 1 2 0 72.93765656545926 10.337370519178101 -2.1772080823455027 0 0 0
6947 1 1 0 74.17730090510493 9.292742050637463 -1.6459447760452086 0 0 0
9820 1 2 0 74.09618655204558 7.682649465019322 -2.183633978081371 0 0 0
9819 1 2 0 75.64591176851266 9.937672200415081 -2.1426826075175662 0 0 0
6948 1 1 0 76.75489223010406 11.097304972143126 -1.6475956386053041 0 0 0
9822 1 2 0 78.31034368032685 10.685670124136823 -2.1755033317079246 0 0 0
9821 1 2 0 76.18564280685231 12.579857110431977 -2.2303543285211362 0 0 0
13448 1 2 0 76.80551407345573 11.152089882366193 -4.898616817584466e-08 0 0 0
9833 1 2 0 80.60051020130425 8.953636846224088 -2.1696167586066406 0 0 0
6959 1 1 0 81.45926572278103 7.599042983918395 -1.6480803679912104 0 0 0
9840 1 2 0 83.06667894264902 7.548859280192001 -2.1777610287430194 0 0 0
6965 1 1 0 84.65538293657876 7.358925947241166 -1.6483596675564696 0 1 0
6955 1 1 0 79.90099283361039 10.398374079310928 -1.6494647555393258 0 0 0
9832 1 2 0 80.9247398307888 11.601880424190925 -2.2127696141645243 0 0 0
13465 1 2 0 84.63062358828059 7.3325675506140575 -3.240153249687148e-07 0 1 0
13459 1 2 0 81.48180988663535 7.608668530158235 -3.3538665150290666e-07 0 0 0
13455 1 2 0 79.85625576393932 10.385311433236696 5.860497768191271e-09 0 0 0
9847 1 2 0 85.6137819055115 8.614784369991801 -2.1964310189892746 0 0 0
6963 1 1 0 86.90036551933503 9.517489799516438 -1.6476323202598797 0 0 0
9848 1 2 0 88.36240048307549 8.97234015324672 -2.2272838972691633 0 0 0
6972 1 1 0 89.89340707154093 8.724309702873626 -1.6467782580392247 0 0 0
9844 1 2 0 86.72148920152337 11.060236572567787 -2.2229256648449125 0 0 0
6962 1 1 0 86.93342798053357 12.595632575738794 -1.6475434478797075 0 0 0
13472 1 2 0 89.861027738677 8.742893826992308 -6.79469172540048e-07 0 0 0
13463 1 2 0 86.90726133017782 9.486304916469075 -6.801965752017838e-07 0 0 0
9853 1 2 0 90.98165583214389 9.84606685889731 -2.204670592959312 0 0 0
6967 1 1 0 95.03603843337203 8.899210134529868 -1.6443745158959628 0 0 0
9855 1 2 0 94.7922961808621 7.393623546024826 -2.229261688202959 0 1 0
9851 1 2 0 93.78230976715369 9.791601159822418 -2.239968901648603 0 0 0
6966 1 1 0 92.40640052847081 10.486169401757854 -1.6471782870790377 0 0 0
9852 1 2 0 92.49252255370693 12.00694797431486 -2.2488196894260595 0 0 0
13466 1 2 0 92.40978798274499 10.437636080247781 -6.267186132207003e-07 0 0 0
9854 1 2 0 96.50661913405142 9.33043620577773 -2.2500228451617494 0 0 0
6573 1 1 0 100.75422602088395 8.825308074166436 -1.6475625304031705 0 0 0
9232 1 2 0 101.60253498699751 7.504902149560553 -2.1985301906108776 0 0 0
9233 1 2 0 99.19376733361038 9.031363666086826 -2.207378169109824 0 0 0
6969 1 1 0 97.91577323296548 9.946771496765392 -1.6486291301295746 0 0 0
9858 1 2 0 97.94892218248448 11.500920044656377 -2.222499761135258 0 0 0
9222 1 2 0 101.56048755881837 10.15695029309171 -2.2171804356935247 0 0 0
13073 1 2 0 100.7140658700009 8.761043926186888 -6.267353979548906e-07 0 0 0
9400 1 2 0 9.329840927893292 13.888248167474018 -2.338978395293443 0 0 0
6671 1 1 0 7.877220711060501 13.517410347450847 -1.6519726997664013 1 0 0
6677 1 1 0 10.688501188392252 14.296958919557042 -1.53255017164985 0 0 0
9410 1 2 0 11.927651923352826 13.592475380346778 -2.3235269823491254 0 0 0
9409 1 2 0 10.960888620767637 15.920686393053902 -1.5010317409937353 0 0 0
6678 1 1 0 9.990856861947611 17.266578843644215 -1.5272425022646294 0 0 0
9402 1 2 0 8.57069915030979 16.953928931321986 -2.308001818022081 0 0 0
13178 1 2 0 9.63253812495344 17.792300084989012 -2.184926894553348e-07 0 0 0
13171 1 2 0 7.850368132182296 13.451941363045908 -4.752055898077811e-07 1 0 0
9706 1 2 0 18.23913098032469 12.882162925215644 -2.2152985989980127 0 0 0
6679 1 1 0 13.43341066534591 13.54624510830004 -1.654563238538892 0 0 0
9413 1 2 0 14.285185768269784 14.834184303670778 -2.2136135603090485 0 0 0
6877 1 1 0 14.578151821312213 16.351508743758078 -1.6455870095867084 0 0 0
9704 1 2 0 16.06372110677097 16.696750670880075 -2.2454120007652483 0 0 0
9715 1 2 0 18.520390744477243 15.757612682706824 -2.1681238114651475 0 0 0
9499 1 2 0 13.498174040126782 17.432608802809593 -2.2682674781210617 0 0 0
6885 1 1 0 17.552180900988557 17.055535010022282 -1.6453107171487122 0 0 0
13179 1 2 0 13.450938880426811 13.548184943029355 -3.7965743847252397e-07 0 0 0
13377 1 2 0 14.581930269284385 16.401534737711888 -1.6575944862139936e-07 0 0 0
6884 1 1 0 19.069280989281182 14.243033884912142 -1.6488193551997756 0 0 0
9716 1 2 0 20.6215717509621 13.980910304721476 -2.1913084011031745 0 0 0
6887 1 1 0 22.188932459702098 13.906475155376091 -1.6469687663664134 0 0 0
9721 1 2 0 22.91725081820861 15.270123495497467 -2.2426359750227607 0 0 0
9733 1 2 0 22.81357687433863 17.974188261462615 -2.2056926035006432 0 0 0
6894 1 1 0 23.629346215334444 16.632632818732855 -1.6474690448272211 0 0 0
13387 1 2 0 22.208423532531235 13.888269163028593 -8.052859564815702e-08 0 0 0
13384 1 2 0 18.997915130604806 14.242906098888835 -1.8156909795185408e-07 0 0 0
9728 1 2 0 27.72580016766384 13.28160789369126 -2.218651956313121 0 0 0
9730 1 2 0 27.79475478087888 15.934336098441511 -2.2317565703807976 0 0 0
6893 1 1 0 28.563335564667092 14.592943283715528 -1.6472636467510355 0 0 0
9732 1 2 0 25.180765852288697 16.60658020389467 -2.2153755905120573 0 0 0
6895 1 1 0 26.678993746767567 17.00328371575121 -1.647288394360214 0 0 0
13395 1 2 0 26.687743796463735 16.993786128098627 -1.3754966537975606e-07 0 0 0
6900 1 1 0 31.62798281661876 14.207552940783549 -1.648479790628703 0 0 0
9731 1 2 0 30.126296932776786 14.651353574305004 -2.206988130102755 0 0 0
9742 1 2 0 32.8248271245948 15.202784066755688 -2.2388439541443272 0 0 0
6908 1 1 0 33.718518204874435 16.469035446952805 -1.6432110623020222 0 0 0
9756 1 2 0 32.952947355134285 17.833491122878876 -2.1706079842315376 0 0 0
9755 1 2 0 35.27308565355211 16.53849455535693 -2.2287900210048717 0 0 0
13400 1 2 0 31.64422013189665 14.231197524099791 -3.447899906656179e-07 0 0 0
9751 1 2 0 38.48318208273044 13.325686953733918 -2.200502917573167 0 0 0
9753 1 2 0 37.75531141088741 15.715287103414898 -2.2157331179478024 0 0 0
6907 1 1 0 38.99803550402825 14.815194592814908 -1.6449166957318169 0 0 0
9754 1 2 0 40.417649501458875 15.502150911300417 -2.232175981933404 0 0 0
6909 1 1 0 36.78553557965632 16.899001156985136 -1.646614911371118 0 0 0
13407 1 2 0 39.10374943644411 14.771112847906455 -2.91475571055335e-07 0 0 0
13409 1 2 0 36.718318766381955 16.983023578652215 -5.495612459243508e-07 0 0 0
6916 1 1 0 45.83475949654367 12.985950337586473 -1.547092062638569 0 0 0
6913 1 1 0 42.94229785189746 13.104325572225743 -1.5707849083007632 0 0 0
6914 1 1 0 41.87206458216631 16.005950537427978 -1.5565953275905586 0 0 0
9763 1 2 0 42.931622016658835 14.746725289484637 -1.6628204502984911 0 0 0
9765 1 2 0 42.765890641893726 17.252706446346377 -2.240306138456082 0 0 0
6988 1 1 0 44.11365895568117 18.070163974016626 -1.6508168397037124 0 0 0
9883 1 2 0 45.584569788407485 17.51061070556077 -2.224537327499278 0 0 0
13488 1 2 0 44.072174840054664 17.985355243348042 -3.8739646142228104e-07 0 0 0
13416 1 2 0 45.518987461360716 13.498350925818656 -5.08522585421124e-07 0 0 0
9769 1 2 0 46.75582778971077 14.126563771448893 -2.3127972457294987 0 0 0
6919 1 1 0 50.87651423997372 13.341592225064469 -1.6482862260024511 0 0 0
9775 1 2 0 48.07038561339541 16.331306205375903 -2.1387561281349305 0 0 0
9773 1 2 0 49.571863742108555 14.186384980132331 -2.2412452895351875 0 0 0
6920 1 1 0 48.142392547639574 14.766502676586962 -1.6473363539773893 0 0 0
6987 1 1 0 47.14351523471142 17.598306200979433 -1.6397765686409085 0 0 0
13487 1 2 0 47.037478666889335 17.684999440601842 -4.261238409458459e-07 0 0 0
13419 1 2 0 50.9002860829284 13.358030368417095 -4.592011569124275e-07 0 0 0
9785 1 2 0 56.67732184385007 13.035593636542275 -2.217729904576093 0 0 0
9774 1 2 0 52.30835210736148 14.022222738328214 -2.189589845480336 0 0 0
6928 1 1 0 53.32269383395339 15.248288571890855 -1.6482479659390021 0 0 0
9787 1 2 0 54.91315054607522 15.072523000585308 -2.183946205697288 0 0 0
6927 1 1 0 56.440206419895034 14.583133193889015 -1.6479816623238153 0 0 0
9789 1 2 0 52.62104288216198 16.670275805549224 -2.1834540382796432 0 0 0
6992 1 1 0 52.33465445747118 18.22489946021984 -1.6476272862879446 0 0 0
13428 1 2 0 53.36035460200475 15.242761985958552 -1.0333901434354845e-06 0 0 0
9802 1 2 0 62.26666148593 13.806025585667388 -2.218954711708926 0 0 0
9788 1 2 0 57.76143182624239 15.493031548604124 -2.16477642357825 0 0 0
6939 1 1 0 59.047393771482454 16.46287156966947 -1.6488138459114134 0 0 0
9804 1 2 0 60.60034739022297 15.99301321367363 -2.173205898267327 0 0 0
6938 1 1 0 62.09495003956502 15.350711443007228 -1.6461145395944126 0 0 0
9806 1 2 0 58.66578337747075 18.009241406282545 -2.189164133459705 0 0 0
6946 1 1 0 67.61299068280947 14.087709269593189 -1.636662384939213 0 0 0
9805 1 2 0 63.56316327072863 16.011096957163968 -2.1536770394592906 0 0 0
6994 1 1 0 65.16557231981245 16.160224222968075 -1.6487190011852477 0 0 0
9818 1 2 0 66.30412026089574 15.003709193424275 -2.2122353929031737 0 0 0
9892 1 2 0 65.558611212336 17.68997599836615 -2.188676563220832 0 0 0
13446 1 2 0 67.3979226269819 14.101477573451893 -2.9179166675358923e-07 0 0 0
13494 1 2 0 65.20464949829565 16.073875783606084 -3.2344651365893314e-07 0 0 0
9811 1 2 0 71.49670276199085 12.914494801670436 -2.326523856937258 0 0 0
6944 1 1 0 70.54453991417957 14.065052861415943 -1.5292900694844724 0 0 0
9814 1 2 0 69.109967142252 14.687131832577876 -2.133021675512185 0 0 0
9815 1 2 0 71.4815455658615 15.388134832336794 -1.4526830217579751 0 0 0
6950 1 1 0 73.11312579277735 15.65566196395833 -1.5093552633895573 0 0 0
9825 1 2 0 73.01954060066643 17.12335045217494 -2.3102962626369816 0 0 0
9823 1 2 0 73.86305955463004 14.257998313766835 -2.0603234152256293 0 0 0
9893 1 2 0 70.37714765283509 18.185615253089885 -2.134607674818641 0 0 0
13444 1 2 0 70.16454481221751 13.460173726695825 -2.567355843665343e-07 0 0 0
13450 1 2 0 73.74664428245518 15.93974555125248 -9.012053277937507e-08 0 0 0
6949 1 1 0 75.47127863143318 13.976412871003859 -1.6423409267417575 0 0 0
9824 1 2 0 76.031117363813 15.394010198330387 -2.3417400510822297 0 0 0
6957 1 1 0 77.0361796625875 16.43179693858948 -1.5434580584098165 0 0 0
9836 1 2 0 78.37200864894355 15.475889605954185 -1.5281668704858784 0 0 0
9837 1 2 0 77.22107680119758 17.925633156413795 -2.265480988579102 0 0 0
13457 1 2 0 76.46604173088967 16.671531203681987 -1.1406331779430561e-07 0 0 0
13449 1 2 0 75.70995790429926 13.898791596700264 -6.078487087678813e-07 0 0 0
6956 1 1 0 81.54262675554762 13.044510259871515 -1.6482242482716007 0 0 0
13456 1 2 0 81.5533050063885 12.939167674290891 -5.047790519147939e-07 0 0 0
9834 1 2 0 80.55341369499702 14.22787245607926 -2.271174650139398 0 0 0
9835 1 2 0 83.0635284261401 13.461253267569253 -2.186974400955775 0 0 0
6964 1 1 0 84.38538276308249 14.332800323795587 -1.651334179176408 0 0 0
6958 1 1 0 79.99224692965292 15.591582315123848 -1.549101606432177 0 0 0
9849 1 2 0 84.58551369329635 15.890507430084075 -2.2507200747250486 0 0 0
7001 1 1 0 81.21469067901772 18.072845680992202 -1.4827107003593618 0 0 0
9838 1 2 0 80.29241649886688 17.01566026976506 -2.3652672413809523 0 0 0
9901 1 2 0 82.5996086880615 17.228973406742607 -1.2928109441503721 0 0 0
7000 1 1 0 84.22564823146398 17.327839006941034 -1.486550514667599 0 0 0
13458 1 2 0 80.61611875120299 15.631935878980862 -2.138512847066631e-07 0 0 0
13464 1 2 0 84.33429981521039 14.394282826605359 -4.0177177564463295e-07 0 0 0
9845 1 2 0 85.69091945402633 13.507775210438364 -2.228098535216479 0 0 0
9846 1 2 0 88.35253591878627 13.235405723464456 -2.225977412068798 0 0 0
6975 1 1 0 89.41380971824631 14.365197315472834 -1.6470828193874323 0 0 0
9865 1 2 0 88.99265849593812 15.859996209292058 -2.213207429627378 0 0 0
7002 1 1 0 89.42746354923833 17.344796493804402 -1.6475342822603218 0 0 0
13502 1 2 0 89.47211629170901 17.34447939884099 -8.185769630873799e-07 0 0 0
13475 1 2 0 89.42354134545273 14.311617182582012 -2.508568713883412e-07 0 0 0
9857 1 2 0 90.92641915590154 14.110767556192915 -2.251702173288293 0 0 0
6968 1 1 0 92.33861377367815 13.524750959825104 -1.646646587942168 0 0 0
9856 1 2 0 93.59452470885572 14.423881286395265 -2.22869865801081 0 0 0
6971 1 1 0 95.10914033888301 14.751670201307316 -1.6467220075450995 0 0 0
9860 1 2 0 95.52533412855372 16.265307761798407 -2.1860390251458544 0 0 0
9905 1 2 0 90.90526708507564 17.830466546879446 -2.219316616415193 0 0 0
7005 1 1 0 95.03990201985228 17.760847711283674 -1.6470648311054874 0 0 0
9909 1 2 0 93.53569769431867 18.090522190801842 -2.240178019173209 0 0 0
13505 1 2 0 95.02571920666193 17.780417548386588 -7.497311097634127e-09 0 0 0
9859 1 2 0 96.16705345758169 13.606482168942664 -2.2149555049262415 0 0 0
6970 1 1 0 97.6090232776919 13.009743892728496 -1.6481600670530856 0 0 0
9476 1 2 0 98.79944777521055 13.961864693564847 -2.2673207665398314 0 0 0
6720 1 1 0 99.98565117731955 14.902711648869234 -1.6449638112112281 0 0 0
9229 1 2 0 101.42525517924555 14.418171532648 -2.255615426844664 0 0 0
9475 1 2 0 99.76010324850412 16.40903264898551 -2.237677167498463 0 0 0
6721 1 1 0 99.98392690480695 17.920108376976714 -1.6461851871977504 0 0 0
9411 1 2 0 10.945539926105317 18.4052619290035 -2.255175508649973 0 0 0
6735 1 1 0 12.495484038899997 18.591026937513522 -1.6555289439169136 0 0 0
13235 1 2 0 12.486146914983014 18.515629036715467 -3.1964692740799116e-07 0 0 0
9497 1 2 0 13.040464092205479 20.042391652910897 -2.1991797674623443 0 0 0
6734 1 1 0 12.757227193601873 21.576353974170527 -1.6447256732199773 0 0 0
9471 1 2 0 8.666988484503701 21.502828783745755 -2.2037974134473273 0 0 0
6733 1 1 0 9.838798714834976 22.545221614682248 -1.6468212067345471 0 0 0
9495 1 2 0 11.315016044913518 22.111728882434164 -2.2569859727893244 0 0 0
9717 1 2 0 17.745080379930993 18.652681906050187 -2.17313712308728 0 0 0
9605 1 2 0 16.436272102364672 21.330818730612766 -2.1898309001709655 0 0 0
7014 1 1 0 17.618504411135824 20.254535377316746 -1.6447760141447738 0 0 0
9498 1 2 0 14.011537920427592 22.498205721199305 -2.1928872415300393 0 0 0
6805 1 1 0 15.57655751837956 22.67844317971572 -1.6498882081226653 0 0 0
13514 1 2 0 17.504777215201457 20.18965528413778 -3.9836319510336573e-07 0 0 0
13305 1 2 0 15.668038418909092 22.65965383953006 -6.510552986586829e-08 0 0 0
9924 1 2 0 18.980439946149616 20.987777360741127 -2.213492680047666 0 0 0
9926 1 2 0 21.510918767896726 20.38543740709542 -2.2431702469627783 0 0 0
7017 1 1 0 20.434436100917925 21.490867158314632 -1.6475161251279626 0 0 0
7016 1 1 0 22.794395402400937 19.53606800755575 -1.6454517515806177 0 0 0
9927 1 2 0 24.14475025036688 20.290084882625276 -2.2208146041989205 0 0 0
9928 1 2 0 20.68652762969889 23.020806378693166 -2.2541519455799155 0 0 0
13517 1 2 0 20.487951212221283 21.533367137182903 -9.839730697986073e-07 0 0 0
13516 1 2 0 22.73991206751547 19.515312337636907 -2.9172082171955913e-07 0 0 0
9734 1 2 0 27.042625635700468 18.493006610837778 -2.2514132203555204 0 0 0
7018 1 1 0 27.556621707340422 19.93812588253015 -1.6448190118004398 0 0 0
9929 1 2 0 26.605632770982112 21.195206442230994 -2.1652990261785354 0 0 0
9930 1 2 0 29.072252148394433 20.167727447545918 -2.23852321064978 0 0 0
7019 1 1 0 25.06399793518396 21.533978575345802 -1.6496882804625783 0 0 0
9931 1 2 0 24.488103285324016 22.98588283384502 -2.2364153063959793 0 0 0
13519 1 2 0 25.016289898559606 21.549942367128164 -1.3542383259716353e-07 0 0 0
7024 1 1 0 30.41278999815907 20.916476929826224 -1.6493913978986985 0 0 0
9935 1 2 0 31.71759205284555 20.131144397844658 -2.2669468505676487 0 0 0
7023 1 1 0 33.04355075198437 19.392083026919188 -1.6474543086222886 0 0 0
9936 1 2 0 34.40688488507777 20.09554718176213 -2.280042678161102 0 0 0
9937 1 2 0 30.44745767315333 22.43360013297379 -2.284205881400882 0 0 0
9940 1 2 0 35.286322410453344 22.63667057880435 -2.1936326652904197 0 0 0
13524 1 2 0 30.437812312699663 20.91508338590619 -2.1821100154774922e-08 0 0 0
9757 1 2 0 37.50957359026707 18.255442827417067 -2.27013604873792 0 0 0
7026 1 1 0 35.535958055349 21.110775362794858 -1.636639726837463 0 0 0
7025 1 1 0 38.14182474501884 19.642842811387858 -1.635593565685822 0 0 0
9938 1 2 0 37.086648998929014 20.816160368952904 -2.1216608009401696 0 0 0
9939 1 2 0 39.63949654484718 20.097105963019125 -2.202371385160054 0 0 0
7028 1 1 0 40.545675548902715 21.391986912677414 -1.648741876601504 0 0 0
9943 1 2 0 39.94127131701941 22.817405342381676 -2.216659868362188 0 0 0
9941 1 2 0 42.07870696946356 21.317513464956974 -2.252246212644981 0 0 0
9885 1 2 0 44.08640797995751 19.63892132847565 -2.1822048694655414 0 0 0
7027 1 1 0 43.606729656954634 21.125792764425952 -1.6443593530846896 0 0 0
9942 1 2 0 44.62735299451748 22.309468105139615 -2.2079919748129058 0 0 0
7053 1 1 0 45.66787975122931 23.49162508015353 -1.651555083299782 0 0 0
13553 1 2 0 45.68134646431026 23.514598124116606 -1.4805897557347363e-07 0 0 0
9884 1 2 0 48.053012411092446 18.861145084888715 -2.209097402385446 0 0 0
9889 1 2 0 50.87878135961539 18.860352565072915 -2.201382073410212 0 0 0
6993 1 1 0 49.45080095193559 19.565180513303996 -1.648533769067757 0 0 0
9891 1 2 0 49.22676290755078 21.1138590041301 -2.204281655220842 0 0 0
9978 1 2 0 47.211217109686025 23.118614695145094 -2.2007676968259253 0 0 0
7052 1 1 0 48.70246006819722 22.586827026983766 -1.6441979241599494 0 0 0
9979 1 2 0 49.89634926834735 23.594887836577918 -2.19198855090748 0 0 0
13552 1 2 0 48.61957869290504 22.571541000465164 -3.890996427647533e-07 0 0 0
9890 1 2 0 53.633686086430835 19.099762159198704 -2.212860146298686 0 0 0
7033 1 1 0 54.8524135525403 20.071824796795013 -1.6473710764226088 0 0 0
9949 1 2 0 56.34955454949828 19.562316861134228 -2.1923362231164862 0 0 0
9951 1 2 0 54.48931910260915 21.586107684443718 -2.2216165982106455 0 0 0
7054 1 1 0 54.14698118235386 23.101658130884637 -1.645975922325887 0 0 0
9981 1 2 0 52.68663869007665 23.647697827711887 -2.2331014304878756 0 0 0
7032 1 1 0 57.930654642848296 19.41229174272208 -1.6473953383368471 0 0 0
9950 1 2 0 58.83847617563516 20.71065561773848 -2.184318166463425 0 0 0
7036 1 1 0 59.173918984316856 22.254029847686265 -1.6473565772411898 0 0 0
9956 1 2 0 57.98130419041188 23.258531860382217 -2.221499167838055 0 0 0
9955 1 2 0 60.63382709242712 22.81338208294506 -2.2174887667909298 0 0 0
7037 1 1 0 62.03738334924771 23.513037332162625 -1.648598562077703 0 0 0
9896 1 2 0 65.25503982997655 20.460191469835078 -2.1807190757595425 0 0 0
6996 1 1 0 66.17177614122001 19.144328735600077 -1.6487300041792377 0 0 0
9895 1 2 0 67.73488897488934 19.159878317708777 -2.2360651746244593 0 0 0
9953 1 2 0 63.268970758294174 22.50530047223497 -2.172855933773702 0 0 0
7035 1 1 0 64.77337664115896 21.986627137563538 -1.6541682715087858 0 0 0
9954 1 2 0 65.7879271500159 23.17036293591139 -2.2747185075642666 0 0 0
9985 1 2 0 68.15580738451902 22.44292804644123 -1.4465793981562578 0 0 0
13535 1 2 0 64.78362674729968 21.953438661851063 -4.778361866374985e-08 0 0 0
6995 1 1 0 71.98565609001616 18.284862740477642 -1.6610196380826876 0 0 0
13495 1 2 0 72.04858027909712 18.24366405285977 -4.160103514995415e-07 0 0 0
6997 1 1 0 69.27956974157442 19.349295390899112 -1.653639235224574 0 0 0
9897 1 2 0 69.9187322824821 20.755383243923074 -2.2935092333213176 0 0 0
9894 1 2 0 72.5346617243901 19.756090713714432 -2.2483157245509733 0 0 0
6999 1 1 0 73.87594631246805 20.432471756331353 -1.5614640148537575 0 0 0
7057 1 1 0 69.78801436508077 22.198723150696352 -1.5133355014903935 0 0 0
9986 1 2 0 70.55080521555568 23.450851840456956 -2.2766936706918792 0 0 0
13557 1 2 0 70.44733401799955 22.03036807062415 -1.4819468936439235e-07 0 0 0
9898 1 2 0 75.0080193247463 19.229526193042535 -1.6790290269343495 0 0 0
6998 1 1 0 76.64673579775953 19.32662261930914 -1.5560353272600806 0 0 0
9899 1 2 0 76.99425634875745 20.801468501626488 -2.2461882787505667 0 0 0
9900 1 2 0 74.41299552935249 21.834022830658068 -2.2669761995956996 0 0 0
7059 1 1 0 74.4443693232823 23.37478954383863 -1.6450721293140445 0 0 0
7040 1 1 0 78.08426521510636 21.908787806884025 -1.6435101766814944 0 0 0
9961 1 2 0 78.05522046915833 23.472526630052386 -2.2061555283533005 0 0 0
9959 1 2 0 79.43762774615085 21.181133327233304 -2.20427222207391 0 0 0
13498 1 2 0 77.21947388654584 19.35811110605436 -4.776061928315425e-07 0 0 0
13540 1 2 0 77.99678532286933 22.007609055821334 -2.5101130276264494e-07 0 0 0
13501 1 2 0 80.49115806547614 18.365425227558294 -2.637051123527119e-07 0 0 0
9902 1 2 0 84.49939003129236 18.779154459012748 -2.263047497963533 0 0 0
9903 1 2 0 81.46659595091602 19.516071033013557 -2.2402979608268727 0 0 0
7039 1 1 0 80.94332481044539 20.972242002421797 -1.6384028600857063 0 0 0
7003 1 1 0 84.93426255695354 20.280082463021795 -1.6440240855372812 0 0 0
9960 1 2 0 81.76166980798449 22.242905286273057 -2.2569763221274095 0 0 0
7063 1 1 0 83.17455371686175 22.82819799184944 -1.6447144470781216 0 0 0
9907 1 2 0 84.27581931405192 21.70441475967449 -2.2030066229652516 0 0 0
13563 1 2 0 83.31230611329872 22.911528173554352 -5.310697513691824e-07 0 0 0
9904 1 2 0 88.22924700816635 18.32937487709882 -2.2326824715827476 0 0 0
9906 1 2 0 86.47214325116182 20.43521408533938 -2.1986637305201686 0 0 0
7004 1 1 0 87.8825868043783 19.82604826935884 -1.642620674854558 0 0 0
9908 1 2 0 89.00119735317702 20.882789835340002 -2.236631061269443 0 0 0
7065 1 1 0 89.24314276780771 22.396011043068842 -1.6356539848471265 0 0 0
9997 1 2 0 88.1985559706629 23.528818949159817 -2.2284797363887643 0 0 0
7006 1 1 0 92.14809356146647 18.76255799623684 -1.648595064978304 0 0 0
9910 1 2 0 96.06880672833745 18.922178943633043 -2.223397444040112 0 0 0
9911 1 2 0 92.00717627151397 20.300880755676516 -2.2469194576022486 0 0 0
7064 1 1 0 92.07224898518393 21.837272430125 -1.639867254257384 0 0 0
9995 1 2 0 90.77918938111675 22.767549250573808 -2.0930501200568576 0 0 0
9996 1 2 0 93.30830625285303 22.674651832145134 -2.309286181038102 0 0 0
7067 1 1 0 94.55682049222395 23.50660675024928 -1.6470236709302113 0 0 0
9998 1 2 0 95.84963732308161 22.73080436266608 -2.2582201314041095 0 0 0
13567 1 2 0 94.50723518122025 23.461147413943355 -6.321552079821867e-07 0 0 0
9477 1 2 0 98.7211964550187 18.726813610058812 -2.286722094553465 0 0 0
9441 1 2 0 101.35344927050392 18.621833452788195 -2.2279783013130223 0 0 0
7045 1 1 0 97.4776382959049 19.57367148917445 -1.6486909019585918 0 0 0
9968 1 2 0 97.80095583257894 21.07961125691301 -2.2288071372649307 0 0 0
7066 1 1 0 97.3509040137116 22.544871799452647 -1.643132841355736 0 0 0
13545 1 2 0 97.45106038560945 19.564413278143054 -3.4399912246453283e-07 0 0 0
13566 1 2 0 97.40539632832026 22.573574650324886 -3.483240002370837e-07 0 0 0
9496 1 2 0 9.469756543628371 24.065132650638223 -2.193069516754953 0 0 0
6759 1 1 0 9.718105090746914 25.610706595086064 -1.6453951063217482 0 0 0
9535 1 2 0 11.117472437726757 26.192935985961604 -2.292131822525392 0 0 0
9533 1 2 0 8.492975769310922 26.616556099168957 -2.1539225851628157 0 0 0
6801 1 1 0 12.556535929114537 26.674584720478254 -1.6463776048830123 0 0 0
9597 1 2 0 12.93220999969303 28.186073535866935 -2.236784575012287 0 0 0
13301 1 2 0 12.45764428421265 26.71796407803647 -4.408298062762586e-07 0 0 0
9604 1 2 0 16.00247143779414 24.23527963648822 -2.176019004064879 0 0 0