ITEM: TIMESTEP
2054
ITEM: NUMBER OF ATOMS
15984
ITEM: BOX BOUNDS pp pp pp
0.0000000000000000e+00 2.0668970422460254e+02
0.0000000000000000e+00 1.7989970119839751e+02
-1.0000000000000000e+02 1.0000000000000000e+02
ITEM: ATOMS id type element x y z v_uncoordination
1 1 Si 164.135 167.971 1.62544 0
2 1 Si 162.357 165.274 1.62198 0
3 1 Si 167.223 168.697 1.62676 0
4 1 Si 163.986 162.511 1.64099 0
5 1 Si 167.081 163.318 1.61912 0
6 1 Si 168.801 165.993 1.63511 0
7 1 Si 162.346 170.53 1.62107 0
8 1 Si 159.184 166.11 1.63518 0
9 1 Si 159.286 169.474 1.61068 0
10 1 Si 168.745 171.553 1.6305 0
11 1 Si 163.788 173.386 1.63955 0
12 1 Si 166.928 174.158 1.63446 0
13 1 Si 190.063 17.9294 1.63125 0
14 1 Si 188.551 15.073 1.61707 0
15 1 Si 193.489 17.4655 1.63539 0
16 1 Si 194.677 14.3293 1.62534 0
17 1 Si 192.996 11.572 1.63287 0
18 1 Si 189.912 12.2326 1.63955 0
19 1 Si 187.494 20.2223 1.6354 0
20 1 Si 185.48 14.0985 1.62961 0
21 1 Si 183.275 16.3336 1.62363 0
22 1 Si 184.119 19.482 1.61542 0
23 1 Si 196.001 19.7358 1.63972 0
24 1 Si 195.096 23.022 1.65246 0
25 1 Si 188.376 23.409 1.62858 0
26 1 Si 191.749 24.2954 1.61888 0
27 1 Si 199.264 18.6227 1.61798 0
28 1 Si 199.938 15.5435 1.61718 0
29 1 Si 197.707 13.351 1.62932 0
30 1 Si 202.647 18.813 1.63285 0
31 1 Si 202.84 14.3286 1.60379 0
32 1 Si 205.114 16.5178 1.62013 0
33 1 Si 203.71 21.7755 1.64022 0
34 1 Si 201.154 23.8395 1.60961 0
35 1 Si 198.008 24.8225 1.63415 0
36 1 Si 127.245 167.956 1.61572 0
37 1 Si 124.039 169.079 1.60492 0
38 1 Si 124.258 163.608 1.6277 0
39 1 Si 127.319 164.658 1.61393 0
40 1 Si 122.478 166.274 1.60538 0
41 1 Si 130.01 172.193 1.61827 0
42 1 Si 127.958 174.694 1.61968 0
43 1 Si 132.042 174.49 1.57218 0
44 1 Si 130.216 176.948 1.59428 0
45 1 Si 130.458 169.002 1.62861 0
46 1 Si 121.374 171.192 1.63543 0
47 1 Si 121.546 174.454 1.62325 0
48 1 Si 124.762 175.299 1.62585 0
49 1 Si 149.396 172.698 1.61738 0
50 1 Si 149.532 169.396 1.62467 0
51 1 Si 146.903 174.761 1.62965 0
52 1 Si 146.999 167.32 1.62372 0
53 1 Si 143.824 168.182 1.61298 0
54 1 Si 142.103 171.091 1.6345 0
55 1 Si 143.672 174.184 1.62019 0
56 1 Si 152.385 174.099 1.62255 0
57 1 Si 152.659 168.374 1.62181 0
58 1 Si 154.203 171.359 1.62924 0
59 1 Si 147.753 177.931 1.62932 0
60 1 Si 150.681 179.326 1.63805 0
61 1 Si 153.272 177.44 1.62086 0
62 1 Si 199.881 179.194 1.62987 0
63 1 Si 200.975 175.998 1.63398 0
64 1 Si 197.433 1.68073 1.59619 0
65 1 Si 194.337 3.05181 1.62438 0
66 1 Si 193.305 0.107444 1.62906 0
67 1 Si 198.583 173.311 1.6312 0
68 1 Si 195.28 174.069 1.63837 0
69 1 Si 193.712 176.887 1.62196 0
70 1 Si 202.423 1.22612 1.60222 0
71 1 Si 205.617 1.5397 1.64015 0
72 1 Si 0.480488 178.678 1.63119 0
73 1 Si 204.593 176.141 1.63138 0
74 1 Si 201.438 4.21451 1.6189 0
75 1 Si 198.369 4.78113 1.61562 0
76 1 Si 203.887 6.10532 1.6121 0
77 1 Si 206.658 4.58066 1.6163 0
78 1 Si 106.733 2.82243 1.62646 0
79 1 Si 105.273 179.618 1.63285 0
80 1 Si 106.174 6.2574 1.63226 0
81 1 Si 103.066 6.91658 1.63597 0
82 1 Si 102.058 3.80426 1.63707 0
83 1 Si 102.238 0.539108 1.63218 0
84 1 Si 109.782 2.00032 1.62701 0
85 1 Si 110.888 178.815 1.60094 0
86 1 Si 108.354 174.204 1.62915 0
87 1 Si 111.148 175.543 1.63139 0
88 1 Si 105.914 176.344 1.59112 0
89 1 Si 114.233 2.50669 1.63978 0
90 1 Si 111.714 4.63669 1.61024 0
91 1 Si 113.999 179.16 1.63199 0
92 1 Si 117.362 2.94673 1.64581 0
93 1 Si 117.923 6.18319 1.63543 0
94 1 Si 110.833 7.95185 1.63159 0
95 1 Si 116.251 8.88226 1.62194 0
96 1 Si 113.272 10.0966 1.63087 0
97 1 Si 118.975 0.0140449 1.62016 0
98 1 Si 118.894 176.603 1.61548 0
99 1 Si 115.699 176.385 1.63691 0
100 1 Si 122.934 3.29167 1.58448 0
101 1 Si 123.065 6.36282 1.65952 0
102 1 Si 122.048 0.347232 1.63675 0
103 1 Si 120.545 8.05281 1.61609 0
104 1 Si 125.963 2.86664 1.61099 0
105 1 Si 127.443 5.46373 1.61738 0
106 1 Si 125.687 7.97389 1.59926 0
107 1 Si 127.24 0.127867 1.62154 0
108 1 Si 124.59 178.388 1.62382 0
109 1 Si 131.922 2.89788 1.65024 0
110 1 Si 130.455 5.62516 1.63227 0
111 1 Si 130.333 0.16016 1.65756 0
112 1 Si 134.808 4.12467 1.62507 0
113 1 Si 135.582 7.28479 1.6296 0
114 1 Si 130.607 8.74242 1.64659 0
115 1 Si 133.519 9.82248 1.61139 0
116 1 Si 136.595 1.55139 1.62832 0
117 1 Si 134.878 175.438 1.60258 0
118 1 Si 135.672 178.463 1.59335 0
119 1 Si 140.644 5.26238 1.63192 0
120 1 Si 139.721 2.04936 1.60912 0
121 1 Si 138.699 8.0142 1.6318 0
122 1 Si 145.815 3.37668 1.63852 0
123 1 Si 148.828 4.54984 1.64564 0
124 1 Si 143.803 6.01891 1.62708 0
125 1 Si 149.874 7.59961 1.62832 0
126 1 Si 144.668 9.29002 1.63989 0
127 1 Si 147.86 10.0704 1.6414 0
128 1 Si 145.275 0.0641801 1.61569 0
129 1 Si 151.327 2.6057 1.62757 0
130 1 Si 143.094 177.47 1.62116 0
131 1 Si 140.224 178.705 1.63424 0
132 1 Si 153.093 7.90971 1.61979 0
133 1 Si 153.798 4.74185 1.63049 0
134 1 Si 159.424 6.07538 1.62405 0
135 1 Si 156.747 3.57561 1.63233 0
136 1 Si 160.43 9.52545 1.62162 0
137 1 Si 154.642 10.8139 1.63673 0
138 1 Si 157.887 11.5523 1.62661 0
139 1 Si 162.055 4.19481 1.63649 0
140 1 Si 160.818 1.10651 1.60059 0
141 1 Si 158.5 178.609 1.63737 0
142 1 Si 155.697 0.11716 1.63245 0
143 1 Si 165.249 5.27453 1.64114 0
144 1 Si 167.117 8.11298 1.6281 0
145 1 Si 166.511 11.4538 1.62451 0
146 1 Si 163.152 11.9001 1.63365 0
147 1 Si 167.103 2.62818 1.63323 0
148 1 Si 162.962 178.735 1.6266 0
149 1 Si 165.963 179.568 1.62495 0
150 1 Si 172.036 4.9083 1.62025 0
151 1 Si 170.372 7.65338 1.60878 0
152 1 Si 170.247 2.29957 1.62866 0
153 1 Si 175.231 5.35825 1.62599 0
154 1 Si 175.961 8.46111 1.62063 0
155 1 Si 172.902 9.62672 1.63193 0
156 1 Si 177.424 3.05091 1.64177 0
157 1 Si 170.652 179.024 1.63056 0
158 1 Si 173.563 177.885 1.64015 0
159 1 Si 176.082 0.0466557 1.59663 0
160 1 Si 183.134 5.95663 1.63534 0
161 1 Si 182.136 9.05912 1.65118 0
162 1 Si 180.644 3.82501 1.63557 0
163 1 Si 178.907 9.93838 1.65016 0
164 1 Si 186.362 5.01989 1.62655 0
165 1 Si 189.05 6.82138 1.64157 0
166 1 Si 187.852 9.83388 1.6221 0
167 1 Si 184.821 10.9359 1.62 0
168 1 Si 187.554 2.03925 1.64842 0
169 1 Si 185.107 0.203313 1.61616 0
170 1 Si 182.185 1.16291 1.63181 0
171 1 Si 192.274 5.80472 1.63301 0
172 1 Si 190.198 0.356604 1.6057 0
173 1 Si 194.08 8.48858 1.61732 0
174 1 Si 197.226 7.77312 1.64283 0
175 1 Si 204.415 9.19118 1.63131 0
176 1 Si 199 10.4411 1.61587 0
177 1 Si 202.094 11.2541 1.63495 0
178 1 Si 2.13354 6.95906 1.6128 0
179 1 Si 0.809598 9.87217 1.62074 0
180 1 Si 5.17929 8.03602 1.63238 0
181 1 Si 6.38479 2.22763 1.61545 0
182 1 Si 7.23884 5.55629 1.62953 0
183 1 Si 3.94934 179.401 1.61258 0
184 1 Si 107.712 9.30429 1.62648 0
185 1 Si 118.165 11.4203 1.62316 0
186 1 Si 121.299 11.1866 1.63431 0
187 1 Si 158.664 175.284 1.60772 0
188 1 Si 161.802 175.789 1.6237 0
189 1 Si 127.79 10.2031 1.64515 0
190 1 Si 139.336 11.343 1.63566 0
191 1 Si 142.613 11.9511 1.63524 0
192 1 Si 149.23 13.0524 1.64019 0
193 1 Si 152.554 13.3699 1.63084 0
194 1 Si 172.306 12.7253 1.62986 0
195 1 Si 169.196 13.8173 1.61729 0
196 1 Si 168.044 177.172 1.61427 0
197 1 Si 175.177 14.1981 1.61747 0
198 1 Si 178.168 13.0482 1.64082 0
199 1 Si 2.61509 12.534 1.62153 0
200 1 Si 5.67035 11.3777 1.61663 0
201 1 Si 106.323 12.7822 1.63906 0
202 1 Si 102.85 13.1064 1.62795 0
203 1 Si 101.562 9.93495 1.63132 0
204 1 Si 113.47 13.3606 1.62249 0
205 1 Si 116.595 14.1059 1.62665 0
206 1 Si 127.028 13.2516 1.6224 0
207 1 Si 123.59 13.545 1.65093 0
208 1 Si 133.581 13.0972 1.61075 0
209 1 Si 130.288 14.4752 1.62556 0
210 1 Si 136.967 13.899 1.63293 0
211 1 Si 143.784 15.1507 1.63053 0
212 1 Si 147.164 15.6529 1.64417 0
213 1 Si 159.286 14.5358 1.62009 0
214 1 Si 162.543 15.2255 1.61261 0
215 1 Si 169.995 17.1231 1.61433 0
216 1 Si 175.716 17.3606 1.62714 0
217 1 Si 172.915 18.8351 1.63217 0
218 1 Si 180.2 15.5032 1.60565 0
219 1 Si 1.70431 15.7627 1.63032 0
220 1 Si 111.51 15.9136 1.61816 0
221 1 Si 108.197 15.858 1.62483 0
222 1 Si 195.047 35.1045 1.59373 0
223 1 Si 192.394 33.1906 1.62735 0
224 1 Si 197.83 33.5132 1.5962 0
225 1 Si 193.368 30.0645 1.61506 0
226 1 Si 196.636 30.4502 1.63587 0
227 1 Si 196.557 37.985 1.63371 0
228 1 Si 189.214 33.9527 1.63165 0
229 1 Si 187.969 37.0301 1.60237 0
230 1 Si 188.526 40.2993 1.64355 0
231 1 Si 194.575 40.3509 1.63013 0
232 1 Si 191.543 40.9256 1.60891 0
233 1 Si 200.462 35.5682 1.64062 0
234 1 Si 199.749 38.8059 1.62269 0
235 1 Si 118.511 16.6356 1.6195 0
236 1 Si 121.833 16.3407 1.63292 0
237 1 Si 138.119 17.1243 1.62238 0
238 1 Si 141.529 17.7186 1.63515 0
239 1 Si 154.061 16.2643 1.63838 0
240 1 Si 148.953 18.4837 1.62158 0
241 1 Si 152.179 18.8186 1.61827 0
242 1 Si 157.257 16.976 1.63399 0
243 1 Si 164.206 18.421 1.64132 0
244 1 Si 167.68 19.4215 1.61129 0
245 1 Si 178.778 18.3568 1.60882 0
246 1 Si 116.448 19.1971 1.62205 0
247 1 Si 113.087 18.8498 1.62882 0
248 1 Si 129.969 17.6894 1.6377 0
249 1 Si 123.607 19.0286 1.64397 0
250 1 Si 126.893 18.9532 1.61294 0
251 1 Si 132.642 19.6793 1.64947 0
252 1 Si 135.938 19.7457 1.63498 0
253 1 Si 142.639 20.9431 1.63834 0
254 1 Si 148.592 21.7348 1.63188 0
255 1 Si 145.534 22.6611 1.63054 0
256 1 Si 158.626 19.9268 1.60653 0
257 1 Si 161.779 20.7668 1.61339 0
258 1 Si 180.993 20.7656 1.64217 0
259 1 Si 107.768 19.3105 1.61886 0
260 1 Si 104.917 21.1945 1.63387 0
261 1 Si 101.905 19.5265 1.63277 0
262 1 Si 100.789 16.1352 1.64374 0
263 1 Si 121.659 21.6889 1.63124 0
264 1 Si 118.337 21.8531 1.63614 0
265 1 Si 128.033 21.8168 1.58836 0
266 1 Si 131.09 22.4001 1.59267 0
267 1 Si 137.108 22.8514 1.63452 0
268 1 Si 140.335 23.2388 1.6115 0
269 1 Si 153.519 21.8079 1.62669 0
270 1 Si 151.152 23.9509 1.63428 0
271 1 Si 156.691 22.5604 1.62112 0
272 1 Si 9.62076 1.66009 1.62937 0
273 1 Si 11.8814 4.01085 1.62138 0
274 1 Si 10.3309 6.84124 1.60919 0
275 1 Si 10.5783 178.525 1.616 0
276 1 Si 5.06429 176.24 1.62514 0
277 1 Si 8.40933 175.99 1.63021 0
278 1 Si 173.509 22.0807 1.60917 0
279 1 Si 170.089 21.9171 1.61635 0
280 1 Si 15.1583 3.61923 1.63276 0
281 1 Si 16.8406 6.43317 1.62376 0
282 1 Si 15.2568 9.25649 1.62459 0
283 1 Si 12.0567 9.71625 1.64475 0
284 1 Si 16.4603 0.532717 1.64742 0
285 1 Si 19.9374 7.38409 1.62851 0
286 1 Si 22.6863 5.8078 1.62068 0
287 1 Si 22.7547 2.54736 1.61741 0
288 1 Si 20.0047 0.131751 1.64076 0
289 1 Si 13.8539 178.115 1.61111 0
290 1 Si 20.3107 10.5646 1.6249 0
291 1 Si 17.3641 11.6545 1.64616 0
292 1 Si 25.4035 7.64191 1.61306 0
293 1 Si 28.1656 5.98561 1.60295 0
294 1 Si 26.1696 3.17873 1.63197 0
295 1 Si 40.3532 6.43002 1.63448 0
296 1 Si 37.3476 7.97759 1.64214 0
297 1 Si 43.3655 7.84066 1.61374 0
298 1 Si 43.1719 11.0104 1.62747 0
299 1 Si 37.66 11.2914 1.62523 0
300 1 Si 40.5469 12.7507 1.64104 0
301 1 Si 40.8433 3.2168 1.62026 0
302 1 Si 34.3599 6.33773 1.63474 0
303 1 Si 35.0382 3.14946 1.59941 0
304 1 Si 37.9355 1.72449 1.60769 0
305 1 Si 46.6645 7.22312 1.633 0
306 1 Si 47.174 4.12435 1.62956 0
307 1 Si 44.1474 2.53394 1.62772 0
308 1 Si 49.658 8.78107 1.63442 0
309 1 Si 45.8564 12.5849 1.62169 0
310 1 Si 48.8704 11.76 1.62839 0
311 1 Si 50.5709 3.74244 1.63656 0
312 1 Si 51.0288 0.630697 1.63152 0
313 1 Si 48.2951 179.032 1.62968 0
314 1 Si 45.1478 179.453 1.63482 0
315 1 Si 179.795 23.8998 1.63415 0
316 1 Si 176.267 24.401 1.63923 0
317 1 Si 53.444 5.43004 1.60044 0
318 1 Si 52.9755 8.5963 1.60618 0
319 1 Si 56.7384 5.39216 1.62733 0
320 1 Si 58.159 2.58008 1.6335 0
321 1 Si 56.4812 179.789 1.61374 0
322 1 Si 53.5834 178.64 1.6331 0
323 1 Si 58.4301 8.19606 1.61886 0
324 1 Si 55.8716 10.2204 1.63614 0
325 1 Si 61.2591 1.92749 1.61656 0
326 1 Si 61.1884 178.668 1.62705 0
327 1 Si 58.402 177.314 1.60032 0
328 1 Si 64.1583 3.26429 1.63039 0
329 1 Si 64.2586 6.92013 1.62231 0
330 1 Si 61.63 9.04963 1.6397 0
331 1 Si 65.3985 179.803 1.62911 0
332 1 Si 63.6223 176.718 1.60217 0
333 1 Si 70.524 2.19456 1.60673 0
334 1 Si 68.5732 178.971 1.63651 0
335 1 Si 70.7466 6.00904 1.6116 0
336 1 Si 66.4497 9.56288 1.62542 0
337 1 Si 69.7099 9.40575 1.62639 0
338 1 Si 73.5102 0.798042 1.61627 0
339 1 Si 73.7648 177.409 1.63416 0
340 1 Si 69.0286 175.022 1.65124 0
341 1 Si 72.2079 174.501 1.62839 0
342 1 Si 4.17662 18.079 1.61923 0
343 1 Si 0.308903 22.3548 1.61808 0
344 1 Si 3.52687 21.3676 1.63907 0
345 1 Si 76.0106 2.93829 1.6298 0
346 1 Si 76.1676 6.17187 1.62372 0
347 1 Si 73.4985 7.75191 1.61987 0
348 1 Si 79.0416 2.15143 1.63153 0
349 1 Si 80.4683 179.295 1.6361 0
350 1 Si 76.482 175.86 1.61797 0
351 1 Si 79.485 176.431 1.63967 0
352 1 Si 8.05469 13.7981 1.63482 0
353 1 Si 7.42205 17.1535 1.64295 0
354 1 Si 84.0914 2.59447 1.59861 0
355 1 Si 81.4523 4.18416 1.63817 0
356 1 Si 83.5255 179.491 1.5803 0
357 1 Si 110.654 21.1147 1.6118 0
358 1 Si 87.1757 2.98309 1.60538 0
359 1 Si 86.4719 6.01053 1.62513 0
360 1 Si 81.4032 7.29283 1.64607 0
361 1 Si 84.3517 8.33797 1.63972 0
362 1 Si 89.1596 0.601192 1.62473 0
363 1 Si 86.5267 178.839 1.63311 0
364 1 Si 94.5394 1.49656 1.62804 0
365 1 Si 94.8465 4.61613 1.63167 0
366 1 Si 92.1155 179.408 1.63858 0
367 1 Si 89.4148 6.67325 1.60733 0
368 1 Si 92.3989 6.35097 1.62883 0
369 1 Si 123.289 24.4423 1.64316 0
370 1 Si 126.373 24.7311 1.55844 0
371 1 Si 97.5697 1.04178 1.61688 0
372 1 Si 99.0092 3.7869 1.63869 0
373 1 Si 97.4352 6.40365 1.61356 0
374 1 Si 99.5694 178.592 1.63217 0
375 1 Si 95.0536 174.641 1.62252 0
376 1 Si 92.2984 176.201 1.63908 0
377 1 Si 98.132 175.729 1.63011 0
378 1 Si 129.705 25.1876 1.65589 0
379 1 Si 135.737 25.8668 1.61814 0
380 1 Si 129.883 28.2649 1.61764 0
381 1 Si 133.158 27.9586 1.60604 0
382 1 Si 11.2875 12.9913 1.62872 0
383 1 Si 140.812 26.4271 1.63288 0
384 1 Si 146.173 25.8594 1.60681 0
385 1 Si 143.642 27.799 1.62042 0
386 1 Si 25.6006 10.8485 1.63515 0
387 1 Si 22.8428 12.4598 1.63946 0
388 1 Si 161.366 24.0434 1.61026 0
389 1 Si 169.54 25.0275 1.63677 0
390 1 Si 166.595 26.2252 1.60537 0
391 1 Si 163.431 26.4453 1.63861 0
392 1 Si 31.2297 7.71861 1.64514 0
393 1 Si 31.1512 11.1462 1.60736 0
394 1 Si 28.2593 12.586 1.61971 0
395 1 Si 30.7407 179.171 1.63226 0
396 1 Si 33.7133 0.270554 1.62646 0
397 1 Si 27.8562 0.512769 1.62138 0
398 1 Si 32.7962 14.0679 1.63236 0
399 1 Si 36.0186 14.127 1.63052 0
400 1 Si 158.351 25.4067 1.62139 0
401 1 Si 185.859 25.7703 1.61854 0
402 1 Si 182.325 26.3149 1.6414 0
403 1 Si 191.22 27.5482 1.62373 0
404 1 Si 188.002 28.279 1.61855 0
405 1 Si 206.468 25.4679 1.64483 0
406 1 Si 203.356 26.1047 1.61505 0
407 1 Si 104.921 24.736 1.63075 0
408 1 Si 102.121 26.7842 1.62807 0
409 1 Si 99.6027 21.9592 1.61713 0
410 1 Si 99.2642 25.2493 1.63718 0
411 1 Si 116.874 24.7503 1.62395 0
412 1 Si 110.788 24.5437 1.62491 0
413 1 Si 113.818 26 1.64264 0
414 1 Si 122.191 27.4055 1.62736 0
415 1 Si 119.003 27.1694 1.62397 0
416 1 Si 78.4804 8.39223 1.61841 0
417 1 Si 89.8994 9.69507 1.61256 0
418 1 Si 92.9433 9.38316 1.62403 0
419 1 Si 138.079 28.0654 1.60457 0
420 1 Si 98.3794 9.41454 1.64115 0
421 1 Si 151.785 27.3299 1.65015 0
422 1 Si 154.406 29.8377 1.6195 0
423 1 Si 157.516 28.7311 1.62188 0
424 1 Si 16.7993 14.773 1.63246 0
425 1 Si 13.6117 15.4828 1.6399 0
426 1 Si 175.077 27.5796 1.62131 0
427 1 Si 171.901 27.2168 1.61406 0
428 1 Si 22.4848 15.6432 1.63576 0
429 1 Si 19.4064 16.7687 1.63448 0
430 1 Si 28.0846 15.8302 1.62519 0
431 1 Si 31.1122 16.9606 1.61843 0
432 1 Si 40.9461 15.9782 1.64062 0
433 1 Si 37.8766 16.8689 1.6181 0
434 1 Si 181.44 29.603 1.60436 0
435 1 Si 175.753 30.958 1.63655 0
436 1 Si 178.888 31.8013 1.63303 0
437 1 Si 45.9514 15.7043 1.62637 0
438 1 Si 43.7196 17.844 1.61351 0
439 1 Si 198.75 28.0442 1.62978 0
440 1 Si 50.6632 14.2694 1.61452 0
441 1 Si 48.825 16.7739 1.60658 0
442 1 Si 56.1858 13.4425 1.6156 0
443 1 Si 53.5841 15.1422 1.61861 0
444 1 Si 2.12125 27.6222 1.63489 0
445 1 Si 5.32049 26.8373 1.64309 0
446 1 Si 6.11866 23.6113 1.63514 0
447 1 Si 62.276 12.3434 1.60325 0
448 1 Si 57.9843 16.1793 1.63278 0
449 1 Si 61.0925 15.4619 1.62452 0
450 1 Si 107.887 26.4044 1.6212 0
451 1 Si 65.4637 12.8335 1.59581 0
452 1 Si 74.2406 10.9056 1.6174 0
453 1 Si 71.5375 12.586 1.62671 0
454 1 Si 124.021 30.1185 1.65109 0
455 1 Si 127.318 30.393 1.63269 0
456 1 Si 77.4182 11.3972 1.63761 0
457 1 Si 133.73 31.1951 1.61399 0
458 1 Si 136.994 31.0885 1.62878 0
459 1 Si 85.1716 11.4134 1.63916 0
460 1 Si 88.2837 12.2432 1.64646 0
461 1 Si 148.626 27.9549 1.6321 0
462 1 Si 147.512 30.9303 1.6269 0
463 1 Si 144.3 30.9006 1.62191 0
464 1 Si 95.62 10.9858 1.63262 0
465 1 Si 167.128 29.2977 1.62005 0
466 1 Si 162.35 29.5059 1.63242 0
467 1 Si 164.812 31.3697 1.64083 0
468 1 Si 170.159 29.7775 1.642 0
469 1 Si 25.2308 17.4309 1.64316 0
470 1 Si 187.082 31.3886 1.63265 0
471 1 Si 183.856 31.7751 1.62027 0
472 1 Si 201.908 28.8911 1.61041 0
473 1 Si 0.652445 30.4951 1.61849 0
474 1 Si 204.14 31.1775 1.62051 0
475 1 Si 107.656 29.7782 1.62826 0
476 1 Si 104.841 31.4252 1.62374 0
477 1 Si 101.798 30.1696 1.63204 0
478 1 Si 117.531 29.9003 1.63894 0
479 1 Si 114.445 29.187 1.61707 0
480 1 Si 79.6575 13.6867 1.60885 0
481 1 Si 82.801 13.4461 1.60166 0
482 1 Si 119.089 32.6467 1.63047 0
483 1 Si 122.262 32.8618 1.64379 0
484 1 Si 128.302 33.5339 1.616 0
485 1 Si 131.567 33.8281 1.62198 0
486 1 Si 94.5883 13.9412 1.6435 0
487 1 Si 91.1817 13.8707 1.64007 0
488 1 Si 154.977 33.4415 1.63267 0
489 1 Si 149.27 33.5605 1.6175 0
490 1 Si 152.179 34.9037 1.63745 0
491 1 Si 97.2848 15.9592 1.60689 0
492 1 Si 159.72 31.3202 1.62824 0
493 1 Si 13.1531 18.7922 1.65184 0
494 1 Si 9.90846 19.5674 1.64891 0
495 1 Si 18.8602 19.965 1.63755 0
496 1 Si 15.7309 21.0889 1.62527 0
497 1 Si 170.691 32.7872 1.61879 0
498 1 Si 173.719 33.6934 1.61266 0
499 1 Si 31.6919 20.25 1.63064 0
500 1 Si 24.6314 20.6388 1.61426 0
501 1 Si 26.4594 23.3543 1.62995 0
502 1 Si 29.7167 22.9574 1.63004 0
503 1 Si 182.733 34.7444 1.62319 0
504 1 Si 179.523 35.0597 1.6195 0
505 1 Si 37.731 20.1182 1.65396 0
506 1 Si 34.7334 21.4288 1.62033 0
507 1 Si 45.9357 20.5355 1.63195 0
508 1 Si 40.4243 22.064 1.61438 0
509 1 Si 43.6622 22.7297 1.63866 0
510 1 Si 50.7354 19.1884 1.63433 0
511 1 Si 49.334 21.9085 1.61656 0
512 1 Si 53.6835 18.2571 1.61689 0
513 1 Si 2.7781 32.8606 1.60263 0
514 1 Si 7.60578 29.2235 1.63262 0
515 1 Si 6.09143 32.2422 1.64486 0
516 1 Si 56.6191 19.207 1.63853 0
517 1 Si 109.92 32.1787 1.62197 0
518 1 Si 110.468 35.4146 1.64022 0
519 1 Si 105.502 34.5881 1.62196 0
520 1 Si 107.775 36.8773 1.62662 0
521 1 Si 65.9863 16.2262 1.62913 0
522 1 Si 63.1591 18.0364 1.6157 0
523 1 Si 113.033 32.0104 1.6398 0
524 1 Si 71.8225 16.3111 1.62785 0
525 1 Si 68.8354 18.0186 1.62271 0
526 1 Si 80.2326 16.8082 1.62796 0
527 1 Si 74.5667 18.7435 1.61275 0
528 1 Si 77.9837 19.0699 1.6289 0
529 1 Si 139.018 33.5818 1.64489 0
530 1 Si 142.286 33.3724 1.6265 0
531 1 Si 89.5068 16.5233 1.60797 0
532 1 Si 83.4186 16.5327 1.60959 0
533 1 Si 86.4484 17.5976 1.63241 0
534 1 Si 160.113 34.8036 1.63634 0
535 1 Si 157.246 36.3267 1.63002 0
536 1 Si 168.208 34.7142 1.62646 0
537 1 Si 165.106 34.4713 1.63267 0
538 1 Si 92.0629 18.4534 1.61807 0
539 1 Si 95.259 18.4964 1.62366 0
540 1 Si 9.44318 22.9147 1.63261 0
541 1 Si 172.671 36.8277 1.604 0
542 1 Si 169.529 37.4824 1.62235 0
543 1 Si 184.783 37.1692 1.62438 0
544 1 Si 21.5712 21.7667 1.63205 0
545 1 Si 203.504 34.323 1.60822 0
546 1 Si 0.0498928 34.7585 1.62496 0
547 1 Si 114.374 34.9298 1.63997 0
548 1 Si 117.445 35.36 1.62824 0
549 1 Si 123.285 35.9575 1.64654 0
550 1 Si 126.444 36.3713 1.63256 0
551 1 Si 131.885 37.2192 1.6314 0
552 1 Si 137.698 36.5073 1.61505 0
553 1 Si 134.925 38.1304 1.63325 0
554 1 Si 147.303 35.9971 1.61695 0
555 1 Si 144.16 35.9647 1.6259 0
556 1 Si 87.0011 20.6969 1.6011 0
557 1 Si 90.1454 20.8839 1.62172 0
558 1 Si 152.256 38.1079 1.62549 0
559 1 Si 149.142 38.5159 1.63706 0
560 1 Si 162.917 36.8306 1.62111 0
561 1 Si 15.4851 24.525 1.62908 0
562 1 Si 12.0463 25.3025 1.62672 0
563 1 Si 172.862 40.0598 1.63126 0
564 1 Si 178.207 38.1235 1.64159 0
565 1 Si 175.974 40.6365 1.63356 0
566 1 Si 21.5007 25.0058 1.61667 0
567 1 Si 18.5463 26.6191 1.62859 0
568 1 Si 24.6075 26.1728 1.61901 0
569 1 Si 34.4941 24.6153 1.61059 0
570 1 Si 31.4864 25.6743 1.61232 0
571 1 Si 39.8131 25.1576 1.62847 0
572 1 Si 37.0106 26.5077 1.63216 0
573 1 Si 45.0251 25.7051 1.57833 0
574 1 Si 42.2321 27.0894 1.62505 0
575 1 Si 52.9575 23.4309 1.63474 0
576 1 Si 46.5838 28.5879 1.64023 0
577 1 Si 52.3199 26.6251 1.62596 0
578 1 Si 49.7399 28.4878 1.61673 0
579 1 Si 56.6185 22.4978 1.62988 0
580 1 Si 112.782 37.6982 1.61553 0
581 1 Si 62.7046 21.442 1.6249 0
582 1 Si 60.0507 23.6503 1.62328 0
583 1 Si 68.5698 21.491 1.64695 0
584 1 Si 65.5935 23.0929 1.61527 0
585 1 Si 118.461 38.3591 1.61972 0
586 1 Si 121.564 38.7217 1.63116 0
587 1 Si 74.1687 22.0826 1.62486 0
588 1 Si 71.2086 23.6567 1.63857 0
589 1 Si 79.7727 21.8896 1.59103 0
590 1 Si 77.0853 23.6967 1.60821 0
591 1 Si 126.773 39.7851 1.63537 0
592 1 Si 129.963 40.1091 1.62919 0
593 1 Si 82.5749 23.7635 1.62023 0
594 1 Si 85.9023 23.6813 1.63525 0
595 1 Si 96.4674 21.3942 1.6281 0
596 1 Si 139.747 38.9084 1.61845 0
597 1 Si 142.84 38.7878 1.64373 0
598 1 Si 157.402 39.9851 1.61042 0
599 1 Si 154.223 40.6358 1.63135 0
600 1 Si 10.9847 28.5526 1.63192 0
601 1 Si 167.722 40.0677 1.62685 0
602 1 Si 164.384 39.981 1.63716 0
603 1 Si 170.226 42.0996 1.61912 0
604 1 Si 183.439 40.015 1.62576 0
605 1 Si 180.364 40.3631 1.63893 0
606 1 Si 184.083 43.1311 1.61787 0
607 1 Si 187.168 43.3774 1.63863 0
608 1 Si 1.43849 37.4898 1.64691 0
609 1 Si 0.10779 40.2506 1.59093 0
610 1 Si 201.495 41.783 1.6262 0
611 1 Si 204.708 42.4936 1.64359 0
612 1 Si 4.47501 38.2718 1.62592 0
613 1 Si 8.29035 34.6302 1.63929 0
614 1 Si 7.61937 37.8098 1.61885 0
615 1 Si 3.10652 41.0347 1.58827 0
616 1 Si 78.405 26.6868 1.62892 0
617 1 Si 81.7549 26.8909 1.61254 0
618 1 Si 103.244 36.7525 1.62792 0
619 1 Si 100.289 35.5666 1.62605 0
620 1 Si 99.2346 32.4152 1.64086 0
621 1 Si 107.542 40.0685 1.6127 0
622 1 Si 104.405 39.7436 1.62357 0
623 1 Si 113.697 40.9029 1.65051 0
624 1 Si 116.892 41.1694 1.62117 0
625 1 Si 91.3547 23.7327 1.61977 0
626 1 Si 94.5022 23.9178 1.62306 0
627 1 Si 121.719 42.0055 1.62658 0
628 1 Si 124.855 42.7476 1.63343 0
629 1 Si 135.272 41.3254 1.62176 0
630 1 Si 138.37 41.6928 1.63203 0
631 1 Si 19.1996 30.0981 1.6275 0
632 1 Si 13.0936 31.1846 1.62344 0
633 1 Si 16.3893 32.0111 1.64293 0
634 1 Si 144.526 41.414 1.64132 0
635 1 Si 147.639 41.221 1.64192 0
636 1 Si 25.226 29.541 1.63688 0
637 1 Si 22.4554 31.6684 1.62636 0
638 1 Si 163.064 43.127 1.63226 0
639 1 Si 159.233 43.0261 1.62664 0
640 1 Si 31.1397 28.8599 1.62833 0
641 1 Si 28.4644 30.6927 1.62895 0
642 1 Si 36.8733 29.6786 1.63347 0
643 1 Si 33.8665 30.612 1.62634 0
644 1 Si 42.1701 30.2126 1.63463 0
645 1 Si 39.4012 31.6566 1.62608 0
646 1 Si 179.437 43.3606 1.62538 0
647 1 Si 176.375 43.9477 1.60961 0
648 1 Si 45.0398 31.5318 1.61594 0
649 1 Si 53.9765 29.3918 1.60641 0
650 1 Si 51.3226 31.2468 1.60154 0
651 1 Si 195.28 43.3822 1.60138 0
652 1 Si 192.223 43.9443 1.59871 0
653 1 Si 61.5833 26.7973 1.62383 0
654 1 Si 56.904 30.8157 1.6151 0
655 1 Si 60.1951 30.0144 1.62652 0
656 1 Si 65.0003 26.3961 1.61591 0
657 1 Si 70.8196 27.1082 1.61946 0
658 1 Si 67.7155 28.4873 1.61749 0
659 1 Si 200.447 44.9142 1.62719 0
660 1 Si 197.295 45.7665 1.63301 0
661 1 Si 73.0963 29.6612 1.63332 0
662 1 Si 76.5708 29.377 1.63029 0
663 1 Si 108.757 43.0367 1.61834 0
664 1 Si 111.878 43.7019 1.6048 0
665 1 Si 88.7269 25.5573 1.59973 0
666 1 Si 118.864 43.7444 1.63041 0
667 1 Si 96.1896 26.5987 1.6089 0
668 1 Si 130.433 43.4865 1.6239 0
669 1 Si 133.587 44.009 1.63288 0
670 1 Si 11.4203 33.9822 1.62705 0
671 1 Si 139.981 44.3493 1.64812 0
672 1 Si 143.113 44.1959 1.64152 0
673 1 Si 152.712 43.4431 1.60776 0
674 1 Si 149.572 43.6076 1.6242 0
675 1 Si 169.432 45.2978 1.62694 0
676 1 Si 165.903 45.6715 1.62143 0
677 1 Si 156.653 45.4398 1.60671 0
678 1 Si 153.326 46.5819 1.6045 0
679 1 Si 181.818 45.3653 1.63037 0
680 1 Si 175.483 47.1587 1.65391 0
681 1 Si 172.073 47.6504 1.61997 0
682 1 Si 190.811 46.6517 1.61112 0
683 1 Si 187.692 46.618 1.60474 0
684 1 Si 90.4652 28.4277 1.61974 0
685 1 Si 84.3185 29.0961 1.64097 0
686 1 Si 87.6209 30.0885 1.63316 0
687 1 Si 0.329965 44.8223 1.63164 0
688 1 Si 202.554 47.4531 1.62866 0
689 1 Si 205.93 47.7832 1.62456 0
690 1 Si 93.9985 29.143 1.63614 0
691 1 Si 102.863 42.4742 1.6313 0
692 1 Si 98.7079 38.3279 1.63851 0
693 1 Si 99.9114 41.3276 1.63118 0
694 1 Si 107.132 45.836 1.62246 0
695 1 Si 103.977 45.5236 1.62897 0
696 1 Si 111.792 47.0862 1.63409 0
697 1 Si 117.777 46.964 1.62297 0
698 1 Si 114.76 48.5798 1.62585 0
699 1 Si 16.5067 35.3102 1.59839 0
700 1 Si 13.4972 36.3549 1.61738 0
701 1 Si 125.418 46.1661 1.61694 0
702 1 Si 128.732 46.3937 1.63277 0
703 1 Si 23.1374 35.2175 1.6305 0
704 1 Si 18.0287 38.2204 1.63097 0
705 1 Si 21.2834 38.1118 1.63031 0
706 1 Si 30.2601 33.5075 1.62307 0
707 1 Si 26.0854 36.8213 1.60865 0
708 1 Si 29.43 36.5673 1.6386 0
709 1 Si 135.07 46.8866 1.63333 0
710 1 Si 138.269 46.9779 1.62857 0
711 1 Si 145.049 46.6611 1.63751 0
712 1 Si 148.185 46.3815 1.6161 0
713 1 Si 33.5485 33.7469 1.61723 0
714 1 Si 39.3341 34.8779 1.62877 0
715 1 Si 36.1858 35.7213 1.64163 0
716 1 Si 165.671 49.0214 1.61989 0
717 1 Si 156.712 48.5424 1.66149 0
718 1 Si 160.065 49.1021 1.55777 0
719 1 Si 162.856 50.5171 1.62881 0
720 1 Si 45.0026 34.8672 1.64652 0
721 1 Si 42.1169 36.6625 1.64339 0
722 1 Si 50.7726 34.4959 1.63243 0
723 1 Si 47.9417 36.3672 1.63995 0
724 1 Si 181.287 48.4969 1.62591 0
725 1 Si 178.149 49.442 1.61501 0
726 1 Si 56.4891 34.0916 1.62484 0
727 1 Si 53.7374 35.9622 1.64377 0
728 1 Si 61.9184 33.0264 1.61515 0
729 1 Si 59.499 35.3557 1.62251 0
730 1 Si 67.9459 31.873 1.62247 0
731 1 Si 65.2893 34.118 1.6457 0
732 1 Si 195.704 48.6729 1.63877 0
733 1 Si 192.473 49.3056 1.60769 0
734 1 Si 71.2619 32.5535 1.62121 0
735 1 Si 82.5183 31.6664 1.63549 0
736 1 Si 79.1813 31.5023 1.63107 0
737 1 Si 3.45706 44.0721 1.6246 0
738 1 Si 200.984 50.27 1.63688 0
739 1 Si 197.781 51.1113 1.62567 0
740 1 Si 85.1696 33.5897 1.62299 0
741 1 Si 88.3945 33.2651 1.61896 0
742 1 Si 108.725 48.6748 1.61348 0
743 1 Si 95.8453 32.008 1.63264 0
744 1 Si 120.093 49.3198 1.62397 0
745 1 Si 123.514 49.1094 1.63627 0
746 1 Si 130.264 49.3981 1.64199 0
747 1 Si 133.569 49.7179 1.63615 0
748 1 Si 140.216 49.4263 1.63079 0
749 1 Si 143.392 49.293 1.62924 0
750 1 Si 150.483 48.5816 1.60865 0
751 1 Si 171.32 50.912 1.63851 0
752 1 Si 168.041 51.403 1.64462 0
753 1 Si 78.4515 34.5253 1.63347 0
754 1 Si 72.5097 35.698 1.63001 0
755 1 Si 75.6647 36.0345 1.60916 0
756 1 Si 186.817 49.735 1.62998 0
757 1 Si 183.679 50.7199 1.61972 0
758 1 Si 81.0084 36.4008 1.61719 0
759 1 Si 84.1652 36.491 1.65839 0
760 1 Si 189.79 51.2133 1.63375 0
761 1 Si 90.9792 35.3503 1.6378 0
762 1 Si 94.1567 34.8323 1.62308 0
763 1 Si 1.67856 50.1922 1.63656 0
764 1 Si 203.311 52.4563 1.62495 0
765 1 Si 206.54 52.728 1.62775 0
766 1 Si 106.813 51.6874 1.63675 0
767 1 Si 102.883 51.3826 1.61555 0
768 1 Si 102.107 48.1652 1.61967 0
769 1 Si 13.0764 39.5072 1.62562 0
770 1 Si 9.87237 40.2372 1.64096 0
771 1 Si 16.0576 40.9544 1.62244 0
772 1 Si 118.346 52.1453 1.61665 0
773 1 Si 114.994 51.9423 1.61735 0
774 1 Si 25.6779 40.0132 1.61238 0
775 1 Si 22.692 41.1561 1.60842 0
776 1 Si 125.225 52.0767 1.6336 0
777 1 Si 128.606 52.2471 1.64523 0
778 1 Si 32.2055 38.6112 1.64244 0
779 1 Si 28.1406 41.9968 1.62211 0
780 1 Si 31.3077 41.6105 1.61647 0
781 1 Si 135.602 52.3919 1.63949 0
782 1 Si 138.972 52.3144 1.61356 0
783 1 Si 145.137 51.9118 1.60578 0
784 1 Si 148.507 51.3715 1.64508 0
785 1 Si 35.6178 38.8494 1.6386 0
786 1 Si 155.064 51.2337 1.61038 0
787 1 Si 158.092 51.8807 1.61422 0
788 1 Si 41.7632 40.0426 1.63336 0
789 1 Si 38.284 41.0433 1.62525 0
790 1 Si 179.074 52.6951 1.63273 0
791 1 Si 173.433 53.5935 1.61369 0
792 1 Si 176.581 54.7846 1.63491 0
793 1 Si 47.8218 39.7528 1.64674 0
794 1 Si 44.8908 41.6797 1.6421 0
795 1 Si 53.8348 39.2799 1.6262 0
796 1 Si 50.9291 41.0776 1.63971 0
797 1 Si 59.8784 38.6767 1.64877 0
798 1 Si 56.9638 40.65 1.62462 0
799 1 Si 182.326 53.7011 1.61489 0
800 1 Si 196.601 54.1942 1.63529 0
801 1 Si 190.282 54.3916 1.63183 0
802 1 Si 193.467 55.4002 1.61229 0
803 1 Si 65.884 37.5668 1.60689 0
804 1 Si 63.1966 39.546 1.61848 0
805 1 Si 6.39655 45.1714 1.62846 0
806 1 Si 6.67697 48.3667 1.62447 0
807 1 Si 5.00695 51.0865 1.63326 0
808 1 Si 68.5247 39.8106 1.62878 0
809 1 Si 71.7397 39.0214 1.6306 0
810 1 Si 202.302 55.4242 1.63277 0
811 1 Si 199.168 56.2514 1.64006 0
812 1 Si 120.204 54.8535 1.63489 0
813 1 Si 123.56 54.9671 1.64184 0
814 1 Si 76.4576 39.09 1.60515 0
815 1 Si 79.5494 39.1295 1.63607 0
816 1 Si 130.535 55.024 1.64527 0
817 1 Si 133.959 55.2175 1.63289 0
818 1 Si 86.4369 38.6802 1.60461 0
819 1 Si 91.3373 38.57 1.62351 0
820 1 Si 89.0081 40.5744 1.64331 0
821 1 Si 142.133 53.4994 1.63994 0
822 1 Si 95.6352 37.7037 1.61944 0
823 1 Si 150.063 54.1658 1.62471 0
824 1 Si 153.294 53.8637 1.64742 0
825 1 Si 9.11016 43.3902 1.63342 0
826 1 Si 162.676 53.7046 1.63471 0
827 1 Si 159.706 54.4482 1.63109 0
828 1 Si 167.377 54.624 1.64099 0
829 1 Si 164.617 56.1993 1.61645 0
830 1 Si 64.4917 42.5918 1.62224 0
831 1 Si 67.791 43.0959 1.61428 0
832 1 Si 172.225 56.5842 1.61678 0
833 1 Si 169.173 57.2866 1.62922 0
834 1 Si 187.722 56.5355 1.61142 0
835 1 Si 184.255 56.5598 1.63465 0
836 1 Si 74.2523 41.3555 1.62155 0
837 1 Si 193.011 58.6282 1.61388 0
838 1 Si 189.734 59.1648 1.62696 0
839 1 Si 81.6479 41.3444 1.63883 0
840 1 Si 84.7154 41.1825 1.61919 0
841 1 Si 205.158 56.9687 1.63465 0
842 1 Si 1.37935 55.5634 1.62471 0
843 1 Si 93.9595 40.3792 1.61327 0
844 1 Si 108.778 54.7075 1.64147 0
845 1 Si 112.848 54.729 1.63891 0
846 1 Si 16.7037 44.3225 1.62676 0
847 1 Si 11.1926 45.7925 1.63345 0
848 1 Si 14.2737 46.4855 1.63235 0
849 1 Si 142.193 56.6781 1.62755 0
850 1 Si 145.219 57.9953 1.61324 0
851 1 Si 148.433 57.0224 1.6258 0
852 1 Si 22.3536 44.5043 1.63884 0
853 1 Si 19.5386 46.19 1.62488 0
854 1 Si 158.243 57.1097 1.63783 0
855 1 Si 155.129 56.4517 1.63488 0
856 1 Si 27.8986 45.1377 1.61852 0
857 1 Si 25.0163 46.4969 1.63583 0
858 1 Si 33.3288 44.1342 1.61335 0
859 1 Si 30.9156 46.3022 1.63593 0