LAMMPS data file via write_data, version 2 Aug 2023, timestep = 724, units = metal

15492 atoms
2 atom types

7.890540451277451 196.1573710048178 xlo xhi
6.770185451811577 170.03373682579206 ylo yhi
-100 100 zlo zhi

Masses

1 28.085
2 15.999

Atoms # full

6599 1 1 0 9.809160850558927 8.817612713455498 -1.547928111742527 0 0 0
9284 1 2 0 8.835250904478071 7.674843749485287 -2.2767926705231103 0 0 0
9277 1 2 0 8.904802702835246 10.19958327230847 -1.6168928288528155 0 0 0
9285 1 2 0 11.261965114180459 9.265628421810607 -2.2510875018924237 0 0 0
6601 1 1 0 12.481180567351597 10.251351275874839 -1.6530661007806018 0 0 0
9287 1 2 0 12.460039487211004 11.79901402080329 -2.2386928585166093 0 0 0
13054 1 2 0 10.142149076320397 8.312655579910725 -1.6557844875215595e-06 0 0 0
13056 1 2 0 12.375991771070534 10.253680464868012 -4.146924220533938e-07 0 0 0
9292 1 2 0 14.071787881186058 7.202451435426948 -2.2463569007334065 0 0 0
6604 1 1 0 14.868826463294862 8.512959857764972 -1.6449293539450471 0 0 0
9293 1 2 0 16.418564135074234 8.566561535885535 -2.2117632168892287 0 0 0
6648 1 1 0 17.776023434783987 7.77891154580678 -1.649803998904243 0 0 0
9288 1 2 0 13.974929376414337 9.774757487785578 -2.198417460292306 0 0 0
13103 1 2 0 17.825080294986723 7.7856825552452795 -6.021460024492341e-07 0 0 0
9359 1 2 0 19.040617190285953 8.661999806537862 -2.2560391826124073 0 0 0
9365 1 2 0 21.68800294538702 9.06320194184077 -2.2268481838426073 0 0 0
6848 1 1 0 22.686368838415557 7.898668789017978 -1.649833802067845 0 0 0
9662 1 2 0 24.1834894026562 8.173817702087282 -2.2898595845790446 0 0 0
6651 1 1 0 20.24749436091903 9.632221827278938 -1.648438299800593 0 0 0
9362 1 2 0 20.185884930629925 11.183539620088501 -2.2117417968387074 0 0 0
13303 1 2 0 22.7410600225568 7.911038384560051 -1.4016630727125763e-07 0 0 0
6847 1 1 0 25.69674407233714 8.196275523045909 -1.6506090139068148 0 0 0
9663 1 2 0 26.55177726374998 6.862698920773135 -2.1731124490959433 0 0 0
9790 1 2 0 29.128817956459223 7.768246967613178 -2.263217228912367 0 0 0
9660 1 2 0 26.490569312829088 9.495082245898995 -2.3023401874879275 0 0 0
6846 1 1 0 27.3958532690752 10.644450821742046 -1.5535931861380778 0 0 0
9661 1 2 0 28.8460516773402 10.92668950067021 -2.305956172995128 0 0 0
9658 1 2 0 26.46294776883343 11.98616867364299 -1.6100548880546668 0 0 0
13301 1 2 0 27.716181502006368 10.144262928481627 -1.4710579587162186e-07 0 0 0
6924 1 1 0 30.64158735031679 7.985280274359578 -1.6243513723751792 0 0 0
9791 1 2 0 31.776537922903096 7.000472003788533 -2.27441829235848 0 0 0
9797 1 2 0 34.315362795200556 7.949787109465642 -2.224114831948262 0 0 0
6923 1 1 0 30.356802106298822 10.900248792727206 -1.6259090400252048 0 0 0
9788 1 2 0 31.136790040689306 9.501987470786197 -1.9833502915953023 0 0 0
9795 1 2 0 35.41817531652904 10.451206305680257 -2.1636587836485233 0 0 0
9789 1 2 0 31.35978488535227 11.97410635649258 -2.341674588286243 0 0 0
6928 1 1 0 35.21352041428553 12.0813845912855 -1.6498655363885353 0 0 0
13379 1 2 0 30.574759489727192 7.738609025025394 -4.7451797624627367e-07 0 0 0
13378 1 2 0 30.27942841694715 11.224494036358944 -2.1829907816685025e-07 0 0 0
13383 1 2 0 35.17920336761316 12.031936598629517 -6.073967994121618e-07 0 0 0
13385 1 2 0 33.35995481349476 6.809472918565083 -3.4466204131618454e-07 0 1 0
6929 1 1 0 35.60908674287722 8.839575205732194 -1.6483549206885417 0 0 0
9798 1 2 0 36.917743985478246 7.88044197545108 -2.1513747221467816 0 0 0
6940 1 1 0 38.228937567820964 6.944516799468722 -1.651051795055033 0 0 0
6939 1 1 0 40.71137928977067 8.7213402947574 -1.6434105675699457 0 0 0
9813 1 2 0 39.51571638556549 7.792535952668571 -2.2787041819503635 0 0 0
9812 1 2 0 40.63940117797816 10.297192049816793 -2.14958905318383 0 0 0
13384 1 2 0 35.65625290893802 8.891983519119723 -6.869258722281948e-07 0 0 0
9684 1 2 0 42.13846124579305 8.185420966113451 -2.2634635809700976 0 0 0
6858 1 1 0 43.66155146255419 8.20479643567996 -1.6487422858800418 0 0 0
9683 1 2 0 44.22851769846149 6.796423303213829 -2.2637667173863107 0 0 0
9681 1 2 0 44.68352974494027 9.419692952536657 -2.145149624113437 0 0 0
6857 1 1 0 44.62713070137125 11.000384554387024 -1.6409991804399375 0 0 0
6938 1 1 0 41.63976939193788 11.52030065697671 -1.6466674710412121 0 0 0
9682 1 2 0 43.19346662946061 11.595366840292833 -2.2237501722558757 0 0 0
9669 1 2 0 45.89367589362844 11.849506574216093 -2.2772495699919655 0 0 0
13313 1 2 0 43.583212221187814 8.267809419666943 -9.800437873860793e-08 0 0 0
13312 1 2 0 44.67883739804128 11.129360513186818 -7.894993105815691e-07 0 0 0
9685 1 2 0 46.837694718633735 7.0563844265330005 -2.0776199441937715 0 0 0
9679 1 2 0 49.483275654490235 7.451565226839276 -2.306316206467092 0 0 0
6856 1 1 0 50.56655276210748 8.518499905700534 -1.6510100194885093 0 0 0
9680 1 2 0 52.03954086362255 8.126065642337466 -2.2589505545940156 0 0 0
9667 1 2 0 50.23884401629034 10.013113506609878 -2.241046914909721 0 0 0
6849 1 1 0 50.033529732807544 11.532076155421795 -1.6489800509876071 0 0 0
9665 1 2 0 48.57390770524521 11.957852387963413 -2.2673509070666453 0 0 0
13311 1 2 0 50.53759152391077 8.51050754997824 -5.592345353806348e-07 0 0 0
6862 1 1 0 53.54332172338798 7.884390987681806 -1.646075700982402 0 0 0
6861 1 1 0 54.899382517624105 10.494902926538757 -1.644148194633175 0 0 0
9688 1 2 0 54.66845756953327 8.958428656583326 -2.1944895655042616 0 0 0
9671 1 2 0 53.58875867172059 11.328149676487854 -2.1999904005717594 0 0 0
9689 1 2 0 56.30601589172582 11.059491102782628 -2.2774014830692035 0 0 0
13317 1 2 0 53.490426361987446 7.88734893203217 1.2386665938156152e-07 0 0 0
9694 1 2 0 60.309458466154524 7.837991735542761 -2.208958954266489 0 0 0
9692 1 2 0 58.802813967694966 10.243905455736808 -2.2144532486957247 0 0 0
6863 1 1 0 57.79321078143234 11.441127989367851 -1.651161742177259 0 0 0
6865 1 1 0 60.13714540400778 9.41275191413698 -1.646372949195376 0 0 0
9695 1 2 0 61.3656733312601 10.3827299898727 -2.17648738780731 0 0 0
6871 1 1 0 62.821143404795414 10.964099304738696 -1.6416010488822412 0 0 0
13318 1 2 0 57.80994211841964 11.424955226620508 -1.357526842998888e-07 0 0 0
6874 1 1 0 64.92182782518461 8.488145832648435 -1.6295710235138883 0 0 0
9710 1 2 0 66.2974292748652 9.260857051511792 -2.1205250347363926 0 0 0
9717 1 2 0 68.43396290102243 7.696744573386053 -2.2256690979241416 0 0 0
6878 1 1 0 67.85553838113604 9.13619544249774 -1.6409685371510148 0 0 0
9705 1 2 0 63.83620368222584 9.692510920051124 -2.158160963249831 0 0 0
9714 1 2 0 68.61781002290175 10.465719552508267 -2.283785572453079 0 0 0
9709 1 2 0 65.15680890431561 6.873109889961309 -2.1517963838388146 0 0 0
6877 1 1 0 68.98660297866859 11.888810405936184 -1.5167995248969461 0 0 0
6883 1 1 0 69.73878209726196 6.858194076512549 -1.6507420914255029 0 0 0
9723 1 2 0 71.06653486393472 7.580094581004836 -2.3020369715185285 0 0 0
6882 1 1 0 72.17128634129945 8.582063982276159 -1.646226682296874 0 0 0
9724 1 2 0 73.62075285248072 7.9472291452224235 -2.1364882808405308 0 0 0
6881 1 1 0 72.13207039010243 11.533423562285291 -1.51525467996396 0 0 0
9721 1 2 0 72.07957171284022 10.095982996898776 -2.3171546058293244 0 0 0
9716 1 2 0 70.60149294731353 12.120489039270334 -1.4333940934184586 0 0 0
13336 1 2 0 72.78260007645825 11.288602160465393 9.579970642618672e-08 0 0 0
13338 1 2 0 69.75393595135621 6.780307236372399 -2.114982607100521e-06 0 0 0
6889 1 1 0 74.96290727369806 8.756344859377645 -1.6412834373216745 0 0 0
9734 1 2 0 76.32435877422782 8.037519460086326 -2.230463959998285 0 0 0
9731 1 2 0 74.98857062011523 10.291964547197896 -2.225709072017986 0 0 0
6887 1 1 0 76.19989752558675 11.259247319457943 -1.6516204163148807 0 0 0
9732 1 2 0 77.67327968546643 10.73523596316077 -2.2258976614754618 0 0 0
6890 1 1 0 79.08323045240616 11.363188129685598 -1.633995087957609 0 0 0
13342 1 2 0 76.23887909990457 11.31575065740382 -5.121601702936335e-07 0 0 0
9740 1 2 0 79.64653310521976 8.134684495646866 -2.2890988996028336 0 0 0
6893 1 1 0 80.81995445585855 9.10358538632276 -1.6496708089109353 0 0 0
9741 1 2 0 82.29743850268629 8.593285369036666 -2.161898458582906 0 0 0
9747 1 2 0 84.90298907983829 8.505655969114605 -2.257878649047391 0 0 0
9736 1 2 0 80.43748261358814 10.608508743878328 -2.225996591523304 0 0 0
6897 1 1 0 83.6566006490649 9.39883256869723 -1.6426187115913722 0 0 0
9745 1 2 0 83.47442699342342 10.941526432351775 -2.239388918428533 0 0 0
13352 1 2 0 83.81933347046328 9.466848180770654 1.6202035227327265e-08 0 0 0
13348 1 2 0 80.82995246104865 9.076467497105682 -2.568012295288677e-07 0 0 0
6910 1 1 0 85.91483591064332 7.333557616373273 -1.6512578578718058 0 0 0
9763 1 2 0 87.40783329880716 7.743862268197858 -2.223409903544674 0 0 0
6905 1 1 0 88.87305723165768 8.236735929223974 -1.648327262740573 0 0 0
9762 1 2 0 89.97700170117004 7.1518114773615995 -2.250064548326939 0 1 0
6898 1 1 0 89.86107421260975 11.177578184870951 -1.6508123665191017 0 0 0
9750 1 2 0 89.16547101832398 9.771214196104648 -2.205510601833178 0 0 0
13365 1 2 0 85.88425285138709 7.321736188553016 -6.086818042461351e-07 0 0 0
6906 1 1 0 95.04859394250987 8.693947076104843 -1.6424424727091322 0 0 0
9764 1 2 0 94.7810510674568 7.1760494757217925 -2.1852594687067683 0 0 0
9748 1 2 0 91.43185124817298 11.144517477582088 -2.226695213242906 0 0 0
6899 1 1 0 92.97911433293395 10.966853378723636 -1.6456241622531032 0 0 0
9752 1 2 0 93.80828995307589 9.63902495953142 -2.222608848253348 0 0 0
13354 1 2 0 92.91088330971645 10.900762138046085 -9.067826310365244e-07 0 0 0
9765 1 2 0 96.57019829901509 8.915816433155113 -2.2552832636920646 0 0 0
9773 1 2 0 99.3056527268042 8.04961248334769 -2.2736383377889737 0 0 0
6912 1 1 0 98.10930715587003 9.036337803034383 -1.6464927257445183 0 0 0
9772 1 2 0 98.51567051435109 10.547600074070234 -2.164456499612854 0 0 0
6913 1 1 0 97.97565519835302 12.021415940494817 -1.6360847629654522 0 0 0
9127 1 2 0 101.64345066990472 11.428613215409591 -2.2291322015472077 0 0 0
13369 1 2 0 100.50858454391921 7.245185880055523 -3.101824718538456e-07 0 0 0
13367 1 2 0 98.08180876643826 8.854845744083377 -6.334220899911135e-07 0 0 0
13368 1 2 0 97.7972275450329 11.983384655975954 -1.365523018206714e-07 0 0 0
6603 1 1 0 12.86685198992573 13.291323330527952 -1.6491259379582954 0 0 0
6602 1 1 0 10.189459894514533 14.75715311845762 -1.6456030210390051 0 0 0
9279 1 2 0 8.92097713472067 13.88522976456531 -2.2528805263273037 0 0 0
9290 1 2 0 10.055726638285408 16.312718245423827 -2.1844258310030154 0 0 0
9289 1 2 0 11.645254812517537 14.24369453572005 -2.227108481192582 0 0 0
13057 1 2 0 10.167422304646763 14.685269231393544 -1.2545903782857142e-06 0 0 0
9291 1 2 0 14.328502196806857 13.886093001174821 -2.1962420676079644 0 0 0
6646 1 1 0 15.337394096658851 15.104826967373166 -1.649383083353392 0 0 0
9357 1 2 0 16.891841026455122 14.840463241609957 -2.2151042014099844 0 0 0
6650 1 1 0 18.470835500181 14.89471400057895 -1.6480964194286323 0 0 0
9356 1 2 0 14.732401343222978 16.563420100141315 -2.1960297267035926 0 0 0
9364 1 2 0 19.23277985897378 16.24636272714045 -2.2283328182702853 0 0 0
9361 1 2 0 19.423693609530893 13.646328584463975 -2.19882789386621 0 0 0
6649 1 1 0 20.665587856411513 12.67294435993608 -1.6516238441515396 0 0 0
9363 1 2 0 22.22456556039115 13.006856244151525 -2.201942696633151 0 0 0
6842 1 1 0 23.44925794139891 14.019518134904278 -1.6339356867710708 0 0 0
9653 1 2 0 22.843928858957405 15.4945715767885 -2.0635956158480013 0 0 0
6844 1 1 0 20.003775131332155 17.590171839925386 -1.6513676749965895 0 0 0
6843 1 1 0 22.972638437328303 17.07375524146157 -1.630486104612365 0 0 0
9656 1 2 0 24.4259753249369 17.620581553977594 -2.2281946104732753 0 0 0
13297 1 2 0 23.550407492672317 13.777871083692125 2.958668260110357e-07 0 0 0
13299 1 2 0 20.0248337163998 17.561567301325415 -2.1993756029518377e-08 0 0 0
9654 1 2 0 25.01669605796146 13.973140225107858 -2.255960248201471 0 0 0
6845 1 1 0 26.51545152090388 13.629991091280987 -1.547307344451425 0 0 0
9659 1 2 0 27.992611013225563 14.10813536020024 -2.208303937386174 0 0 0
9783 1 2 0 29.07163447295101 16.475856880973684 -2.1672468769160953 0 0 0
6920 1 1 0 29.38544352656338 14.923744476626052 -1.6451594386387047 0 0 0
13375 1 2 0 29.360992636055197 14.81967849674852 -7.525623851329209e-08 0 0 0
6926 1 1 0 32.136331528790436 13.25319799801923 -1.6456832962013541 0 0 0
9793 1 2 0 33.767750383166884 12.914871506777182 -2.1118202580509196 0 0 0
9784 1 2 0 30.957699515493047 14.45374619326324 -2.1078550000257974 0 0 0
9802 1 2 0 35.21525149740208 17.62358326535956 -2.2449406709078517 0 0 0
13381 1 2 0 32.22347286142082 13.411565494273749 6.574466909329271e-07 0 0 0
9796 1 2 0 36.61005903320862 12.896776635347317 -2.1653978770290587 0 0 0
9810 1 2 0 40.88459949365116 12.82393509817923 -2.264633750661372 0 0 0
6931 1 1 0 37.588660163276806 14.183571758515546 -1.6362365149178755 0 0 0
9800 1 2 0 36.66015509923961 15.468769319914603 -2.1221221405201103 0 0 0
9801 1 2 0 39.15679238990846 14.60328758765328 -2.1559804763834154 0 0 0
6937 1 1 0 40.770568986749744 14.344009541521677 -1.6442491073446794 0 0 0
6932 1 1 0 36.64643816528 17.04238881551132 -1.6443162226687211 0 0 0
13387 1 2 0 36.677388194690614 17.186783887016116 -3.4431121771975186e-07 0 0 0
13392 1 2 0 40.739692069551666 14.550365075377636 -9.12061042208224e-08 0 0 0
9811 1 2 0 42.24440394982782 15.044014836263369 -2.1495607769692273 0 0 0
6941 1 1 0 43.67899346587964 15.817529444381194 -1.6169104020673009 0 0 0
9675 1 2 0 45.29217659026378 15.733737620241344 -2.1551551784430347 0 0 0
9815 1 2 0 43.40074648080669 17.364740771568005 -2.0966599848756777 0 0 0
13396 1 2 0 43.75133240814992 15.466693858983144 2.561646410736969e-07 0 0 0
9666 1 2 0 51.223542505243586 12.557516220214692 -2.1993696984702575 0 0 0
6850 1 1 0 47.21230548295538 12.64168178010918 -1.6492557958402918 0 0 0
9668 1 2 0 47.328478751508364 14.18477023756771 -2.1987173422860167 0 0 0
6853 1 1 0 46.9182487815713 15.678970816424236 -1.6405998433229667 0 0 0
6854 1 1 0 49.61932151504369 17.505276509013758 -1.6456760589235702 0 0 0
9674 1 2 0 48.27464805876678 16.59553013333258 -2.1623280000657967 0 0 0
9676 1 2 0 51.263869799911255 17.35545544176275 -2.139367156130615 0 0 0
6851 1 1 0 52.786397670639225 12.659754752831873 -1.6454286567046061 0 0 0
6852 1 1 0 54.583033901003475 15.131967312947191 -1.6491035260339202 0 0 0
9670 1 2 0 53.57393345080129 13.966372248286705 -2.263144475376934 0 0 0
9673 1 2 0 56.14528795029543 14.949761508185722 -2.2092985287429645 0 0 0
6864 1 1 0 57.66846642057928 14.52594026204283 -1.648893512765393 0 0 0
9672 1 2 0 53.88096660570548 16.520463876794597 -2.199969490000511 0 0 0
13306 1 2 0 52.77198985273032 12.728671584888318 -3.810532546954601e-07 0 0 0
13307 1 2 0 54.61395196903076 15.090405149508141 -1.0564886561479786e-07 0 0 0
13319 1 2 0 57.6419877198276 14.538004201727754 -8.22001451259509e-08 0 0 0
9691 1 2 0 58.11503169691417 12.996781578656863 -2.1745387241620446 0 0 0
9704 1 2 0 62.83158059894548 12.612407132480183 -2.153127023761093 0 0 0
9693 1 2 0 58.780371553061705 15.641055588066587 -2.1985760696538996 0 0 0
9706 1 2 0 61.43252841922128 15.266646468510105 -2.1439098356735333 0 0 0
6873 1 1 0 60.20303650505453 16.344952108483355 -1.6482902157531931 0 0 0
6872 1 1 0 62.71667794946849 14.254304359572995 -1.649508785690169 0 0 0
13328 1 2 0 60.25631470661458 16.372336783848265 -7.080241423769216e-08 0 0 0
13327 1 2 0 62.66985505090742 14.196575492325232 -1.0843105247834959e-07 0 0 0
9715 1 2 0 68.46512879102234 13.226208106013313 -2.3276622945324372 0 0 0
9707 1 2 0 64.0645642881098 15.0752954331156 -2.2143440674672537 0 0 0
6880 1 1 0 65.40759691117547 15.875783968673138 -1.643995209823424 0 0 0
6879 1 1 0 68.21725462734969 14.726179761320108 -1.6548077720551966 0 0 0
9718 1 2 0 66.70196423439344 15.029933864691502 -2.2042944992426747 0 0 0
9720 1 2 0 65.72389869400779 17.396729279085832 -2.2271836448632096 0 0 0
9722 1 2 0 72.99078944330596 12.720397130757249 -2.281850530427661 0 0 0
9719 1 2 0 69.29089065761168 15.890188881164022 -2.1861953593540706 0 0 0
9727 1 2 0 71.82999834371934 15.158485702282267 -2.2938882227587087 0 0 0
6885 1 1 0 73.04377614336744 14.26453148762904 -1.648968395464524 0 0 0
6886 1 1 0 70.81571381660875 16.293494745676192 -1.6504625316573338 0 0 0
13340 1 2 0 72.87627832145608 14.20764202803014 -9.595856908493885e-08 0 0 0
13341 1 2 0 70.83908235369516 16.346152874791585 -3.0368697400729483e-07 0 0 0
9728 1 2 0 74.48414982894114 14.963386747628684 -2.08879250489932 0 0 0
9730 1 2 0 75.80336509008691 12.69286025690865 -2.3121612761154955 0 0 0
6888 1 1 0 75.88414360350805 14.19031756285714 -1.6455200424893432 0 0 0
9735 1 2 0 79.19328357786756 12.949168440660117 -2.0581402178921344 0 0 0
9733 1 2 0 77.2490991469344 14.784799141759697 -2.310859850204408 0 0 0
6892 1 1 0 78.31693934500004 15.848659213777076 -1.6551939647097504 0 0 0
9737 1 2 0 79.8738687365527 15.453618036207299 -2.168057780893995 0 0 0
9739 1 2 0 77.58596778035195 17.227715613147602 -2.1826072248749684 0 0 0
13347 1 2 0 78.34361578019445 15.855159148542736 -2.720944391984131e-07 0 0 0
13343 1 2 0 75.99855815940275 14.163757906502227 -7.611491531264903e-08 0 0 0
6896 1 1 0 83.09617834357238 12.446015951939652 -1.6322414215080117 0 0 0
6891 1 1 0 80.44199194313966 13.96042983712449 -1.6294755738716609 0 0 0
9738 1 2 0 81.82343572605369 13.316633904708675 -2.2862919806310704 0 0 0
9746 1 2 0 84.42503099191866 13.293665885805398 -2.0687212668971164 0 0 0
6909 1 1 0 85.22666063633406 14.653143903578156 -1.6290070349222998 0 0 0
9769 1 2 0 84.32233546157505 15.941736566190395 -2.205443708669054 0 0 0
6956 1 1 0 83.81782478406268 17.45047848300325 -1.6508291176218604 0 0 0
13364 1 2 0 85.37933834623364 14.873551874099526 -3.326975939911263e-07 0 0 0
9749 1 2 0 88.97083962615667 12.48034979935973 -2.219970323264629 0 0 0
6900 1 1 0 88.24544892895256 13.880408348637937 -1.6412999814239904 0 0 0
9754 1 2 0 86.73776630080968 14.282615738487811 -2.242256758696912 0 0 0
9753 1 2 0 89.19126922699259 15.156345818969774 -2.1228417836542395 0 0 0
9758 1 2 0 87.72473966348217 17.485931057637895 -2.2208797041782566 0 0 0
6902 1 1 0 89.1119553982065 16.74634372384625 -1.6451853688082896 0 0 0
9757 1 2 0 90.50690559226837 17.40133104454983 -2.250284783518708 0 0 0
13357 1 2 0 89.10244076164648 16.85505641352409 -4.2690591256232447e-07 0 0 0
9751 1 2 0 93.84341475544049 12.25078191958192 -2.20473942659386 0 0 0
6901 1 1 0 95.10334675195004 13.154222641323907 -1.649171234527205 0 0 0
6903 1 1 0 94.57725977614417 16.164295706011366 -1.6564405153774553 0 0 0
9755 1 2 0 94.71084530072675 14.634280718491917 -2.2504167886685242 0 0 0
9759 1 2 0 93.1783230335618 16.870755351211084 -2.2132109678855807 0 0 0
9760 1 2 0 95.95923664691043 16.859957822745734 -2.276295085609531 0 0 0
9756 1 2 0 96.5503469937038 12.592355932202606 -2.267049481774381 0 0 0
9303 1 2 0 99.24698255179163 12.952929349818932 -2.129904356024848 0 0 0
6610 1 1 0 100.8314788968762 12.784323290248386 -1.6496861363439332 0 0 0
9301 1 2 0 101.41569795818782 14.226387746126806 -2.2518451377207707 0 0 0
6609 1 1 0 101.09424689855453 15.736418333895983 -1.6431898109835263 0 0 0
9302 1 2 0 99.75438476785342 16.60343177997769 -2.1301891130530803 0 0 0
13064 1 2 0 101.088362943868 15.608176499681507 2.0743340216350966e-07 0 0 0
6644 1 1 0 10.763338445324546 17.708372571316165 -1.6462688426804983 0 0 0
9354 1 2 0 12.310795389250405 17.88858250874524 -2.230645098645349 0 0 0
13099 1 2 0 10.823359145358706 17.750252737746866 -4.807757517737642e-07 0 0 0
9353 1 2 0 9.748286182465234 18.885221124026277 -2.2165290209985424 0 0 0
6645 1 1 0 8.35716836420079 19.593104577515607 -1.6496781622787164 0 0 0
9355 1 2 0 8.500166049335622 21.152701754628847 -2.211006124799707 0 0 0
6690 1 1 0 8.676735530947472 22.707873892680084 -1.6483366073096475 0 0 0
6647 1 1 0 13.874884279431457 17.882448019068015 -1.6495257371143397 0 0 0
9358 1 2 0 14.616291396965938 19.250362708136812 -2.2261108395815157 0 0 0
6693 1 1 0 15.437232532123586 20.570395305331036 -1.64891554838608 0 0 0
9430 1 2 0 16.99411588201962 20.539536500096045 -2.232662300860854 0 0 0
6966 1 1 0 18.520125624577243 20.266421780912356 -1.6473592801489343 0 0 0
9429 1 2 0 14.659283379752319 21.92764444229735 -2.2043700704933635 0 0 0
9655 1 2 0 21.56982791498951 17.770665953960776 -2.216190919768439 0 0 0
9657 1 2 0 19.08438331765664 18.830497987654812 -2.2313320401052166 0 0 0
6968 1 1 0 20.843670673200418 22.269619033101435 -1.649184617615634 0 0 0
9852 1 2 0 19.54405655902724 21.424613641082004 -2.226715820413924 0 0 0
9853 1 2 0 22.252481749721053 21.55807078295556 -2.210144676454206 0 0 0
6967 1 1 0 23.8237941187205 21.420937435740818 -1.6465793142844465 0 0 0
13423 1 2 0 20.888091704788827 22.26574095950349 -4.5660642915264775e-07 0 0 0
13422 1 2 0 23.77286903544541 21.343895015868455 -1.1097675690590534e-07 0 0 0
6921 1 1 0 28.587309744001846 17.982048424348346 -1.6479502208626828 0 0 0
13376 1 2 0 28.50998463353656 18.034772822720875 -1.6637140731922843e-06 0 0 0
6922 1 1 0 25.499841162900168 18.762513518294767 -1.648812404361375 0 0 0
9785 1 2 0 27.06108094817891 18.454513032653903 -2.2110808015946644 0 0 0
9786 1 2 0 29.810343766225905 18.976529066927032 -2.225822243406484 0 0 0
9787 1 2 0 24.792284509478645 20.177688681844717 -2.1919185161846952 0 0 0
9854 1 2 0 24.56382824184373 22.77063425167476 -2.237899246772604 0 0 0
9895 1 2 0 29.850095707275784 22.50899264900238 -2.1934239276747842 0 0 0
13377 1 2 0 25.591400493184807 18.776048203903468 -9.235026265250535e-08 0 0 0
9804 1 2 0 32.588159760361606 18.40451796053532 -2.144983703664735 0 0 0
6934 1 1 0 34.14773283549704 18.740326727272745 -1.6476157601305477 0 0 0
6933 1 1 0 31.321538551535834 19.39090873155059 -1.6487089581606302 0 0 0
9805 1 2 0 31.815296850492214 20.883694821438386 -2.1983811518932623 0 0 0
9806 1 2 0 34.62128361988744 20.21703789083005 -2.2329628253732534 0 0 0
6995 1 1 0 31.415598673492795 22.394596048358203 -1.6483335450602579 0 0 0
9900 1 2 0 34.96004754647309 22.872034608373855 -2.2036996951632983 0 0 0
6998 1 1 0 35.54566846206041 21.44793347078251 -1.648121171781709 0 0 0
9803 1 2 0 37.981116583403484 17.80613996333199 -2.2896756346097056 0 0 0
9816 1 2 0 40.7501591600264 17.895926723359697 -2.200585302737904 0 0 0
13398 1 2 0 39.24112224629114 18.385066535261902 -3.00002256085522e-07 0 0 0
6943 1 1 0 39.31575008682114 18.534862328601307 -1.6393919050844672 0 0 0
9818 1 2 0 39.40497479140106 20.11227667793204 -2.125185230081398 0 0 0
9862 1 2 0 37.05512116826977 21.351424916410764 -2.306667639593979 0 0 0
6972 1 1 0 38.55128961616043 21.441781711043884 -1.6418849424776734 0 0 0
9861 1 2 0 39.34944604703244 22.767576356291976 -2.2183663008632863 0 0 0
13453 1 2 0 35.57161536738287 21.407367085306742 -5.978832029421737e-08 0 0 0
6942 1 1 0 42.23645974690078 18.41825367833989 -1.641354984737593 0 0 0
9817 1 2 0 42.840442078393636 19.79873431955248 -2.3059812244822746 0 0 0
9859 1 2 0 42.00818637729797 22.227499886678746 -2.2265546946216754 0 0 0
6971 1 1 0 43.1940678096773 21.259321896137386 -1.648010524590486 0 0 0
9860 1 2 0 44.667985349684585 21.788962550097633 -2.204996739236101 0 0 0
13397 1 2 0 42.13560189289853 18.56359236162647 -2.177836512951216e-07 0 0 0
6974 1 1 0 49.81731533222386 20.44576937153244 -1.6443583531117012 0 0 0
9677 1 2 0 49.24211628483442 19.017222856673555 -2.2305269940676147 0 0 0
9865 1 2 0 51.35526136266753 20.788436421700197 -2.1737454755639267 0 0 0
9864 1 2 0 48.814848195910514 21.60768934401839 -2.232125095588878 0 0 0
6976 1 1 0 48.401868240735205 23.094881669788652 -1.6492382232378857 0 0 0
13431 1 2 0 48.40815054192395 23.08173456256918 -4.468501074655125e-08 0 0 0
13429 1 2 0 49.79426859908173 20.38297400635987 3.6995780066159385e-07 0 0 0
6855 1 1 0 52.858564557628085 17.7083212593398 -1.6477090382780541 0 0 0
13310 1 2 0 52.81390048572739 17.800191797687575 -5.965484749228301e-07 0 0 0
6977 1 1 0 54.66632151152076 20.33461777665361 -1.6450818861398988 0 0 0
9678 1 2 0 53.72870612612 19.054477316556973 -2.193716130460266 0 0 0
9870 1 2 0 56.234985841224564 20.600328010121018 -2.1886063064045267 0 0 0
6978 1 1 0 52.338512700008486 22.027357060810868 -1.6442225294263617 0 0 0
9869 1 2 0 53.87042076714417 21.708904865961824 -2.157919551482198 0 0 0
6982 1 1 0 57.48109431739086 21.610505163686987 -1.6469466076139165 0 0 0
13433 1 2 0 52.246367514676955 22.08568745185513 5.6332338826960235e-09 0 0 0
13432 1 2 0 54.74165060717988 20.2132116576123 -6.273430283364271e-08 0 0 0
13437 1 2 0 57.59649408336788 21.63341120448965 -2.364522801745287e-07 0 0 0
9708 1 2 0 60.16794559206651 17.98795800437676 -2.1371392145796353 0 0 0
9875 1 2 0 58.92144896443691 20.7158476257277 -2.1220359940634523 0 0 0
6981 1 1 0 60.20542468020413 19.645862205605248 -1.6512013966084194 0 0 0
9876 1 2 0 61.722060471791394 20.22345272097955 -2.1843829105364847 0 0 0
13436 1 2 0 60.18691373904678 19.646673640855244 -4.302527828749245e-07 0 0 0
6984 1 1 0 63.281155979068856 20.58721995123602 -1.6449718671094313 0 0 0
6983 1 1 0 65.94763298002502 18.93720936142743 -1.649841790415402 0 0 0
9878 1 2 0 64.52616710841089 19.62344123961716 -2.196999115734428 0 0 0
9879 1 2 0 67.41774851132674 19.597364813521235 -2.1809683428365516 0 0 0
6987 1 1 0 68.75917613507322 20.502409749436477 -1.6471724963876442 0 0 0
9880 1 2 0 63.81804585005779 22.068528719217493 -2.1846450274027154 0 0 0
9884 1 2 0 68.57130549765438 22.073903365912518 -2.177794139256192 0 0 0
13438 1 2 0 65.9938433865237 18.990081940763318 -8.469744454912189e-07 0 0 0
13442 1 2 0 68.73825111777802 20.4073822778826 -2.518881802193616e-07 0 0 0
9729 1 2 0 71.38276237898356 17.73568837475155 -2.229060257484459 0 0 0
9882 1 2 0 70.31562296101022 20.092236338074034 -2.162317767202612 0 0 0
6986 1 1 0 71.7061949552164 19.259044716137602 -1.648020333093472 0 0 0
9883 1 2 0 73.28314652846107 19.676675158435106 -2.159700044718075 0 0 0
6957 1 1 0 77.75815898675815 18.772338213823506 -1.6343564395152301 0 0 0
6988 1 1 0 74.83570932569651 20.20160713114847 -1.6438618796187687 0 0 0
9841 1 2 0 76.31093459086732 19.50220394384071 -2.1681587897110215 0 0 0
9840 1 2 0 79.36815525291308 18.9925199807081 -2.1673864202457573 0 0 0
9885 1 2 0 74.91179907534602 21.780258149636126 -2.159679670096642 0 0 0
9915 1 2 0 79.80391908684253 22.504399850769964 -2.1918728696860748 0 0 0
13443 1 2 0 74.82929661766288 20.042169222091374 -2.9627185096647987e-07 0 0 0
9838 1 2 0 82.27014799769445 17.904217546564368 -2.1882047365707122 0 0 0
9839 1 2 0 85.07499673080315 18.452428524993323 -2.1656937371839895 0 0 0
6958 1 1 0 80.95417236646581 18.82806081654978 -1.574229199184829 0 0 0
9842 1 2 0 81.49840771357552 20.35970331441606 -1.7913326557316234 0 0 0
7010 1 1 0 81.29312578910002 21.978700405118893 -1.5870344987720264 0 0 0
9916 1 2 0 82.74541502497748 22.46200222767118 -2.26923569376007 0 0 0
7016 1 1 0 84.23997129709254 22.88254005454778 -1.6505171190061687 0 0 0
13471 1 2 0 84.2275827756611 22.75163596078352 -5.140668110467197e-07 0 0 0
13465 1 2 0 81.3000244101878 22.447091429842946 -2.279839178666505e-07 0 0 0
6960 1 1 0 86.66022265350546 18.64744315351089 -1.6477360529042977 0 0 0
9844 1 2 0 87.26910570343797 20.09716609719614 -2.1852240706715573 0 0 0
9889 1 2 0 85.65414834001983 22.171294931311497 -2.2009128536358373 0 0 0
6990 1 1 0 87.1541866607022 21.668321624471254 -1.6474260655441673 0 0 0
6991 1 1 0 90.04802228646508 22.960414989446683 -1.6495851325033057 0 0 0
9888 1 2 0 88.51188970918228 22.511413957575567 -2.1945190045143455 0 0 0
13446 1 2 0 90.00900601680331 22.93110365455863 -1.0917813837694168e-06 0 0 0
13445 1 2 0 87.16816622148467 21.7535120360062 -1.9922364266688015e-06 0 0 0
6904 1 1 0 91.97854016809573 17.878511732044064 -1.6489038309946402 0 0 0
9761 1 2 0 92.19944966175429 19.415008260190426 -2.221322587978989 0 0 0
6989 1 1 0 92.4423103285336 20.950647847865152 -1.6538822535267463 0 0 0
9887 1 2 0 93.9374429270106 21.465142737824028 -2.2267860975386173 0 0 0
9848 1 2 0 95.42601862828796 19.31252776768898 -1.7439412955497484 0 0 0
6992 1 1 0 95.38634525116555 20.958621391352974 -1.574735993390019 0 0 0
9886 1 2 0 91.21360934914152 21.9112638165624 -2.2223612968466724 0 0 0
13444 1 2 0 92.44658015230485 20.97406651296815 -1.7471559766894526e-06 0 0 0
13447 1 2 0 95.40031333461361 21.457989237982485 -9.638855544565994e-07 0 0 0
6963 1 1 0 96.64121614108812 18.196743921598088 -1.5868410311847183 0 0 0
6663 1 1 0 99.60031122882904 18.20136483586446 -1.6486574087036059 0 0 0
13118 1 2 0 99.62506165972417 18.318486747511834 -2.0628764330292135e-06 0 0 0
9384 1 2 0 98.0997251440292 18.651500284908977 -2.250234981195223 0 0 0
9383 1 2 0 100.83727816717074 19.209241451128413 -2.1735215611845735 0 0 0
9891 1 2 0 96.79438053500685 21.4618815785429 -2.292279924662397 0 0 0
9385 1 2 0 99.66632978471348 21.505010715979186 -2.2135103976466333 0 0 0
7022 1 1 0 98.21343170336031 22.056545546348314 -1.651640242035215 0 0 0
6664 1 1 0 101.05808944344557 20.790752969204494 -1.6470546408717839 0 0 0
9425 1 2 0 10.068651741823949 23.461571331546768 -2.1992856859635155 0 0 0
9427 1 2 0 12.80028634262583 23.893226950200305 -2.2046613422630927 0 0 0
6692 1 1 0 11.318105504686548 24.43958739316194 -1.6497136812672366 0 0 0
9489 1 2 0 9.253878405469889 27.933150463749776 -2.2126771291950895 0 0 0
9428 1 2 0 11.11852714126835 26.002313690518495 -2.206802184987616 0 0 0
6734 1 1 0 10.76684796488125 27.533112208344914 -1.648407203422471 0 0 0
13147 1 2 0 11.311299564280851 24.431422517811612 -4.866959103217231e-07 0 0 0
6694 1 1 0 14.316499886006985 23.456430284740343 -1.6482283359770142 0 0 0
13149 1 2 0 14.296611817738434 23.500109010478756 -2.7413648249832043e-07 0 0 0
9431 1 2 0 15.545337979535 24.43210713598323 -2.211517337705978 0 0 0
7028 1 1 0 16.638399693594522 25.555251983374347 -1.6494710608806664 0 0 0
9938 1 2 0 18.19342776631182 25.267322194266114 -2.2063044183132674 0 0 0
9940 1 2 0 16.044818822187626 26.998909378151783 -2.2188448670445577 0 0 0