ITEM: TIMESTEP
1630
ITEM: NUMBER OF ATOMS
15312
ITEM: BOX BOUNDS pp pp pp
0.0000000000000000e+00 2.0184839053419412e+02
0.0000000000000000e+00 1.7647078477221228e+02
-1.0000000000000000e+02 1.0000000000000000e+02
ITEM: ATOMS id type element x y z v_uncoordination
1 1 Si 106.829 4.19205 1.63539 0
2 1 Si 110.122 4.4382 1.63468 0
3 1 Si 104.74 6.8468 1.64114 0
4 1 Si 111.093 7.63887 1.64674 0
5 1 Si 105.984 9.97087 1.61668 0
6 1 Si 109.198 10.3387 1.63425 0
7 1 Si 105.747 1.07626 1.64078 0
8 1 Si 112.137 1.66303 1.62637 0
9 1 Si 110.877 174.971 1.61661 0
10 1 Si 107.605 174.891 1.62302 0
11 1 Si 101.473 6.1371 1.63809 0
12 1 Si 100.582 2.97991 1.62461 0
13 1 Si 102.594 0.491141 1.62997 0
14 1 Si 115.425 2.26021 1.6171 0
15 1 Si 116.203 5.55278 1.63048 0
16 1 Si 114.248 8.30735 1.63142 0
17 1 Si 117.659 176.212 1.64723 0
18 1 Si 122.227 5.68459 1.62653 0
19 1 Si 119.188 6.67926 1.61796 0
20 1 Si 123.177 2.75026 1.64316 0
21 1 Si 120.799 0.571798 1.60703 0
22 1 Si 114.962 170.504 1.62998 0
23 1 Si 111.74 171.68 1.62788 0
24 1 Si 117.445 172.892 1.62812 0
25 1 Si 124.611 7.75163 1.61546 0
26 1 Si 119.609 9.8114 1.62506 0
27 1 Si 122.678 10.1961 1.62527 0
28 1 Si 126.393 2.37274 1.60617 0
29 1 Si 126.027 175.714 1.62108 0
30 1 Si 122.95 174.714 1.62311 0
31 1 Si 129.542 3.30294 1.64059 0
32 1 Si 130.304 6.4122 1.61257 0
33 1 Si 127.708 8.18083 1.62681 0
34 1 Si 131.79 0.939361 1.62579 0
35 1 Si 129.264 175.169 1.62067 0
36 1 Si 137.126 4.74228 1.62456 0
37 1 Si 135.791 7.86446 1.62489 0
38 1 Si 135.328 1.29282 1.64322 0
39 1 Si 132.692 8.64465 1.63148 0
40 1 Si 140.425 5.95254 1.62055 0
41 1 Si 140.548 9.25073 1.59267 0
42 1 Si 137.633 10.6026 1.59965 0
43 1 Si 143.782 5.00346 1.63905 0
44 1 Si 143.74 1.79738 1.60622 0
45 1 Si 142.739 175.227 1.62971 0
46 1 Si 140.136 173.3 1.62344 0
47 1 Si 136.961 174.508 1.62299 0
48 1 Si 147.302 6.25839 1.6341 0
49 1 Si 148.232 9.48662 1.61667 0
50 1 Si 145.788 11.6628 1.62369 0
51 1 Si 142.556 11.8216 1.63533 0
52 1 Si 146.67 0.656534 1.60062 0
53 1 Si 145.764 174.117 1.60217 0
54 1 Si 150.313 4.60831 1.60517 0
55 1 Si 149.674 1.47354 1.61078 0
56 1 Si 153.662 4.7654 1.62741 0
57 1 Si 155.485 7.64343 1.627 0
58 1 Si 151.167 11.2553 1.62968 0
59 1 Si 154.451 10.8353 1.61947 0
60 1 Si 154.635 1.52045 1.62847 0
61 1 Si 152.098 175.836 1.61401 0
62 1 Si 160.552 2.21202 1.6298 0
63 1 Si 157.735 0.423598 1.6205 0
64 1 Si 161.044 5.52813 1.6417 0
65 1 Si 158.754 7.95639 1.6231 0
66 1 Si 162.885 176.383 1.61654 0
67 1 Si 158.429 173.688 1.62947 0
68 1 Si 161.597 173.457 1.63586 0
69 1 Si 166.888 4.88887 1.63539 0
70 1 Si 164.13 6.66511 1.6329 0
71 1 Si 168.076 1.75406 1.63816 0
72 1 Si 166.056 175.638 1.62928 0
73 1 Si 168.874 7.3695 1.6144 0
74 1 Si 164.778 9.92025 1.63271 0
75 1 Si 167.932 10.4007 1.6112 0
76 1 Si 172.908 4.1702 1.61597 0
77 1 Si 171.961 7.22415 1.63215 0
78 1 Si 171.35 1.29334 1.6147 0
79 1 Si 176.077 4.12489 1.61336 0
80 1 Si 177.424 7.24766 1.63395 0
81 1 Si 176.212 10.4492 1.62817 0
82 1 Si 172.986 10.3144 1.62123 0
83 1 Si 176.271 0.761142 1.62144 0
84 1 Si 173.501 175.228 1.6286 0
85 1 Si 182.768 5.06141 1.64033 0
86 1 Si 181.9 1.98168 1.61134 0
87 1 Si 180.645 7.45948 1.61122 0
88 1 Si 179.37 176.386 1.62888 0
89 1 Si 188.888 6.11193 1.63228 0
90 1 Si 185.704 6.34201 1.60483 0
91 1 Si 190.884 8.62623 1.61653 0
92 1 Si 185.557 9.49474 1.61289 0
93 1 Si 188.455 10.7611 1.6239 0
94 1 Si 189.917 3.2023 1.63634 0
95 1 Si 187.533 1.01778 1.62025 0
96 1 Si 193.109 2.80981 1.61791 0
97 1 Si 192.351 176.243 1.62986 0
98 1 Si 189.471 175.086 1.62838 0
99 1 Si 184.482 0.13812 1.62811 0
100 1 Si 196.267 3.43627 1.62933 0
101 1 Si 198.732 5.68808 1.63179 0
102 1 Si 197.414 8.71875 1.63093 0
103 1 Si 194.091 9.40046 1.61551 0
104 1 Si 196.803 0.30883 1.62648 0
105 1 Si 0.31408 5.08742 1.62059 0
106 1 Si 2.11436 2.22713 1.62199 0
107 1 Si 199.494 175.422 1.61724 0
108 1 Si 0.67514 175.946 1.63362 0
109 1 Si 194.783 174.378 1.61552 0
110 1 Si 2.8348 7.13671 1.60637 0
111 1 Si 199.582 11.3138 1.60602 0
112 1 Si 0.900227 12.5867 1.64457 0
113 1 Si 3.2971 10.3209 1.60819 0
114 1 Si 5.98891 6.53085 1.61263 0
115 1 Si 7.36517 3.60013 1.62013 0
116 1 Si 5.25018 1.09731 1.60826 0
117 1 Si 105.175 13.2051 1.62382 0
118 1 Si 102.007 13.7905 1.63765 0
119 1 Si 99.5006 11.5841 1.63463 0
120 1 Si 98.964 8.31931 1.64264 0
121 1 Si 114.972 11.6062 1.62647 0
122 1 Si 110.071 13.5418 1.63823 0
123 1 Si 113.232 14.4039 1.62736 0
124 1 Si 118.006 12.5733 1.63577 0
125 1 Si 128.773 11.1266 1.63411 0
126 1 Si 131.828 11.8194 1.63086 0
127 1 Si 147.488 14.335 1.5976 0
128 1 Si 150.684 14.4184 1.61299 0
129 1 Si 159.535 11.1721 1.62675 0
130 1 Si 162.615 12.3269 1.63643 0
131 1 Si 182.454 10.1207 1.62336 0
132 1 Si 181.254 13.0084 1.61541 0
133 1 Si 178.021 13.3484 1.60926 0
134 1 Si 194.215 12.575 1.62391 0
135 1 Si 197.229 13.4633 1.62422 0
136 1 Si 107.543 15.6267 1.6284 0
137 1 Si 123.626 13.0915 1.60854 0
138 1 Si 119.252 15.6191 1.63285 0
139 1 Si 122.351 15.9289 1.61682 0
140 1 Si 126.686 13.3632 1.62354 0
141 1 Si 137.833 13.9114 1.63043 0
142 1 Si 132.51 15.0553 1.64118 0
143 1 Si 135.552 16.281 1.64463 0
144 1 Si 140.975 14.7365 1.61906 0
145 1 Si 147.347 17.4109 1.57699 0
146 1 Si 152.273 17.2753 1.64955 0
147 1 Si 150.01 19.3025 1.55114 0
148 1 Si 156.939 13.1483 1.63664 0
149 1 Si 170.463 12.4223 1.63447 0
150 1 Si 188.81 13.904 1.62963 0
151 1 Si 183.287 15.5161 1.61307 0
152 1 Si 186.478 16.1017 1.64466 0
153 1 Si 191.889 14.7124 1.63584 0
154 1 Si 197.807 16.4979 1.6231 0
155 1 Si 1.47522 15.9612 1.61726 0
156 1 Si 200.658 17.6931 1.59685 0
157 1 Si 114.839 17.3647 1.6151 0
158 1 Si 117.955 18.5275 1.59692 0
159 1 Si 127.237 16.3657 1.625 0
160 1 Si 130.166 17.3621 1.60773 0
161 1 Si 141.958 17.8597 1.61946 0
162 1 Si 144.792 19.0117 1.62348 0
163 1 Si 163.499 15.5412 1.63536 0
164 1 Si 157.554 16.514 1.63221 0
165 1 Si 160.779 17.5967 1.62457 0
166 1 Si 170.103 15.7031 1.62822 0
167 1 Si 166.797 16.6209 1.62465 0
168 1 Si 178.184 16.7157 1.62659 0
169 1 Si 172.546 18.2091 1.61318 0
170 1 Si 176.004 19.2031 1.64222 0
171 1 Si 181.274 17.9952 1.60599 0
172 1 Si 195.561 53.5573 1.61654 0
173 1 Si 192.741 51.4709 1.62368 0
174 1 Si 195.124 57.4578 1.62886 0
175 1 Si 189.621 52.8852 1.63384 0
176 1 Si 190.013 56.2496 1.61693 0
177 1 Si 192.07 58.9313 1.61506 0
178 1 Si 198.596 51.6625 1.6231 0
179 1 Si 195.95 46.3746 1.61962 0
180 1 Si 199.086 47.9701 1.63252 0
181 1 Si 192.996 48.0577 1.62184 0
182 1 Si 200.966 54.0721 1.63443 0
183 1 Si 200.179 57.4894 1.64473 0
184 1 Si 197.629 59.8349 1.62133 0
185 1 Si 192.721 17.7468 1.63987 0
186 1 Si 195.646 18.7324 1.63259 0
187 1 Si 3.52961 18.6136 1.63024 0
188 1 Si 6.46754 9.69966 1.62544 0
189 1 Si 9.07663 11.6108 1.63022 0
190 1 Si 8.06205 14.8952 1.5826 0
191 1 Si 6.63083 17.9089 1.63091 0
192 1 Si 101.43 16.9805 1.62401 0
193 1 Si 96.6526 13.0866 1.6086 0
194 1 Si 96.0044 16.1501 1.61782 0
195 1 Si 98.4465 17.9276 1.63148 0
196 1 Si 107.895 19.0945 1.64169 0
197 1 Si 105.41 21.307 1.61874 0
198 1 Si 102.518 19.9879 1.64002 0
199 1 Si 113.759 20.3448 1.62163 0
200 1 Si 110.635 21.0263 1.62343 0
201 1 Si 124.622 18.0481 1.62489 0
202 1 Si 135.913 19.6036 1.63102 0
203 1 Si 141.541 21.1445 1.63348 0
204 1 Si 138.4 21.7743 1.63237 0
205 1 Si 155.159 18.8942 1.61789 0
206 1 Si 167.268 19.831 1.62545 0
207 1 Si 170.449 20.7382 1.61968 0
208 1 Si 187.695 19.0666 1.64031 0
209 1 Si 182.901 20.8746 1.64684 0
210 1 Si 186.054 21.7405 1.62609 0
211 1 Si 190.689 20.0787 1.62217 0
212 1 Si 199.418 20.6169 1.63858 0
213 1 Si 201.539 22.8021 1.62501 0
214 1 Si 2.73951 21.843 1.62265 0
215 1 Si 115.957 22.7951 1.62275 0
216 1 Si 111.145 24.2947 1.61719 0
217 1 Si 114.273 25.569 1.62906 0
218 1 Si 119.045 21.6904 1.62197 0
219 1 Si 128.328 20.1429 1.64345 0
220 1 Si 125.095 21.0969 1.61513 0
221 1 Si 133.449 21.6882 1.60883 0
222 1 Si 130.336 22.5167 1.62632 0
223 1 Si 147.399 20.6316 1.614 0
224 1 Si 147.146 23.6612 1.5724 0
225 1 Si 143.779 23.6862 1.61086 0
226 1 Si 161.495 20.8609 1.64339 0
227 1 Si 155.796 22.3259 1.6375 0
228 1 Si 159.116 23.2063 1.6461 0
229 1 Si 164.696 21.8667 1.63104 0
230 1 Si 177.914 22.4387 1.62431 0
231 1 Si 181.291 23.5777 1.63182 0
232 1 Si 196.437 21.7752 1.61354 0
233 1 Si 191.322 23.1962 1.62118 0
234 1 Si 194.357 24.305 1.65253 0
235 1 Si 105.485 24.6604 1.63066 0
236 1 Si 102.647 26.404 1.60589 0
237 1 Si 100.082 22.0385 1.61155 0
238 1 Si 99.7377 25.1554 1.60754 0
239 1 Si 108.469 26.1042 1.65659 0
240 1 Si 122.244 22.9369 1.63288 0
241 1 Si 134.447 24.6611 1.61291 0
242 1 Si 137.594 24.9052 1.61235 0
243 1 Si 150.147 25.1121 1.61077 0
244 1 Si 153.578 24.9972 1.63893 0
245 1 Si 171.123 23.9469 1.62269 0
246 1 Si 165.566 25.0636 1.63797 0
247 1 Si 168.65 26.0625 1.63324 0
248 1 Si 176.846 25.565 1.63226 0
249 1 Si 173.646 26.0342 1.61679 0
250 1 Si 188.26 24.2042 1.63224 0
251 1 Si 200.109 25.619 1.61296 0
252 1 Si 1.06032 26.8431 1.61193 0
253 1 Si 3.5349 24.9524 1.62974 0
254 1 Si 115.324 28.8275 1.62012 0
255 1 Si 109.238 29.2817 1.63483 0
256 1 Si 112.405 30.4374 1.6165 0
257 1 Si 122.993 26.0891 1.61717 0
258 1 Si 121.476 29.0128 1.61688 0
259 1 Si 118.395 30.6916 1.64361 0
260 1 Si 129.185 25.5715 1.6273 0
261 1 Si 126.141 26.9188 1.61269 0
262 1 Si 132.171 26.8687 1.63711 0
263 1 Si 142.627 26.8202 1.61613 0
264 1 Si 148.266 27.7748 1.60118 0
265 1 Si 145.149 28.8911 1.63493 0
266 1 Si 160.276 26.3906 1.64791 0
267 1 Si 154.918 28.093 1.62691 0
268 1 Si 158.107 28.8161 1.64223 0
269 1 Si 163.425 27.5418 1.62646 0
270 1 Si 183.904 26.1139 1.63142 0
271 1 Si 182.209 28.7465 1.62789 0
272 1 Si 178.962 28.1699 1.60988 0
273 1 Si 187.364 27.2928 1.62858 0
274 1 Si 194.998 27.5512 1.62789 0
275 1 Si 189.905 30.2078 1.62188 0
276 1 Si 193.327 30.4624 1.63624 0
277 1 Si 198.116 28.0455 1.63956 0
278 1 Si 103.426 31.6081 1.62924 0
279 1 Si 101.313 29.3361 1.63275 0
280 1 Si 101.238 34.0103 1.62157 0
281 1 Si 98.3991 30.8367 1.63726 0
282 1 Si 97.9907 34.0173 1.60696 0
283 1 Si 106.616 31.2432 1.63729 0
284 1 Si 124.659 29.7843 1.61631 0
285 1 Si 139.336 27.6373 1.62711 0
286 1 Si 133.818 29.6741 1.61769 0
287 1 Si 137.149 30.2218 1.62982 0
288 1 Si 149.967 30.4165 1.62972 0
289 1 Si 153.087 30.7926 1.6374 0
290 1 Si 169.578 29.2393 1.6454 0
291 1 Si 164.417 30.8261 1.63293 0
292 1 Si 167.573 31.9346 1.6287 0
293 1 Si 172.819 29.1983 1.6089 0
294 1 Si 183.715 31.6635 1.59818 0
295 1 Si 186.065 33.9755 1.62755 0
296 1 Si 189.264 33.6132 1.62127 0
297 1 Si 199.651 30.8702 1.6375 0
298 1 Si 0.805483 29.9441 1.615 0
299 1 Si 112.777 33.6047 1.61241 0
300 1 Si 107.091 34.302 1.62442 0
301 1 Si 110.059 34.9842 1.6296 0
302 1 Si 118.442 34.2835 1.61361 0
303 1 Si 113.622 36.7239 1.64959 0
304 1 Si 116.667 37.1788 1.6201 0
305 1 Si 125.908 32.7244 1.62716 0
306 1 Si 132.292 32.502 1.62637 0
307 1 Si 129.142 33.3074 1.6088 0
308 1 Si 144.911 32.1893 1.60633 0
309 1 Si 148.018 32.8343 1.61784 0
310 1 Si 159.077 31.9186 1.62788 0
311 1 Si 162.054 33.1314 1.61448 0
312 1 Si 178.353 31.3105 1.62858 0
313 1 Si 175.111 31.5388 1.62322 0
314 1 Si 180.966 33.26 1.63553 0
315 1 Si 195.129 33.5435 1.61852 0
316 1 Si 198.45 33.8436 1.62326 0
317 1 Si 105.216 36.7876 1.63967 0
318 1 Si 102.132 36.9794 1.63908 0
319 1 Si 120.89 36.4784 1.62319 0
320 1 Si 123.981 35.4219 1.62248 0
321 1 Si 137.745 33.5316 1.61767 0
322 1 Si 134.706 34.7293 1.61665 0
323 1 Si 143.457 35.1502 1.63841 0
324 1 Si 140.173 35.9614 1.62648 0
325 1 Si 153.952 33.9124 1.63935 0
326 1 Si 148.935 35.7954 1.63012 0
327 1 Si 152.012 36.4864 1.63043 0
328 1 Si 157.061 34.4288 1.62452 0
329 1 Si 168.423 35.313 1.64259 0
330 1 Si 161.44 36.3985 1.62712 0
331 1 Si 166.911 38.3646 1.62037 0
332 1 Si 163.678 38.6928 1.62627 0
333 1 Si 174.38 34.5656 1.63301 0
334 1 Si 171.554 35.9578 1.61973 0
335 1 Si 181.783 36.397 1.63398 0
336 1 Si 184.978 37.0734 1.61798 0
337 1 Si 194.314 36.8524 1.63513 0
338 1 Si 191.032 36.6684 1.62801 0
339 1 Si 109.79 37.9971 1.6249 0
340 1 Si 107.003 39.2414 1.61789 0
341 1 Si 112.264 39.6929 1.64546 0
342 1 Si 120.007 39.7354 1.62897 0
343 1 Si 116.866 40.5849 1.61047 0
344 1 Si 129.007 36.4652 1.60688 0
345 1 Si 126.153 37.7327 1.60883 0
346 1 Si 134.244 37.9216 1.64527 0
347 1 Si 131.197 38.6923 1.63995 0
348 1 Si 146.066 37.1907 1.60858 0
349 1 Si 158.273 37.3989 1.62231 0
350 1 Si 176.36 37.0341 1.60091 0
351 1 Si 173.516 38.3938 1.6103 0
352 1 Si 179.287 38.3917 1.63519 0
353 1 Si 200.337 36.6193 1.62321 0
354 1 Si 196.139 39.9102 1.63141 0
355 1 Si 199.432 39.8358 1.61594 0
356 1 Si 3.83901 34.0568 1.61928 0
357 1 Si 3.81896 30.7041 1.64315 0
358 1 Si 1.74222 36.7175 1.63826 0
359 1 Si 6.93994 34.8943 1.61578 0
360 1 Si 8.4572 26.5015 1.61765 0
361 1 Si 5.35448 27.6265 1.6376 0
362 1 Si 10.0059 29.4132 1.61092 0
363 1 Si 9.27259 32.6327 1.62027 0
364 1 Si 107.56 42.2632 1.63729 0
365 1 Si 104.978 44.0433 1.62452 0
366 1 Si 102.146 42.3751 1.59472 0
367 1 Si 100.452 39.621 1.63932 0
368 1 Si 126.843 40.8432 1.63462 0
369 1 Si 121.605 42.5545 1.62046 0
370 1 Si 124.734 43.1673 1.62085 0
371 1 Si 139.263 39.3221 1.61941 0
372 1 Si 136.169 40.5695 1.63577 0
373 1 Si 146.968 40.2421 1.6298 0
374 1 Si 144.411 42.1624 1.61212 0
375 1 Si 141.196 41.9794 1.6388 0
376 1 Si 152.967 39.5849 1.62308 0
377 1 Si 150.109 41.2858 1.62531 0
378 1 Si 156.287 40.1363 1.65812 0
379 1 Si 167.921 41.5766 1.63686 0
380 1 Si 173.554 41.4569 1.61516 0
381 1 Si 170.82 43.0696 1.61372 0
382 1 Si 186.666 39.9487 1.63235 0
383 1 Si 179.456 41.6663 1.63306 0
384 1 Si 185.358 42.9556 1.62237 0
385 1 Si 182.147 43.6069 1.61801 0
386 1 Si 189.973 39.872 1.62183 0
387 1 Si 2.53027 39.9786 1.62523 0
388 1 Si 5.70567 40.75 1.62843 0
389 1 Si 7.68846 38.0707 1.61214 0
390 1 Si 110.747 42.5276 1.64445 0
391 1 Si 115.571 43.8529 1.65432 0
392 1 Si 112.486 45.1846 1.63553 0
393 1 Si 129.953 41.5957 1.62549 0
394 1 Si 134.915 43.8117 1.62458 0
395 1 Si 131.711 44.266 1.64072 0
396 1 Si 150.042 44.4722 1.64256 0
397 1 Si 145.217 45.2127 1.61597 0
398 1 Si 147.824 46.8343 1.63419 0
399 1 Si 162.954 41.808 1.60136 0
400 1 Si 157.636 43.1777 1.61709 0
401 1 Si 160.679 43.9529 1.6267 0
402 1 Si 165.516 43.6802 1.60537 0
403 1 Si 176.425 42.8894 1.6191 0
404 1 Si 172.187 46.0487 1.63464 0
405 1 Si 175.628 45.9802 1.62808 0
406 1 Si 191.701 42.7509 1.62074 0
407 1 Si 194.968 43.0938 1.6177 0
408 1 Si 10.4788 2.54593 1.61416 0
409 1 Si 6.98795 174.706 1.64156 0
410 1 Si 10.087 175.74 1.62209 0
411 1 Si 0.0309239 42.2001 1.62575 0
412 1 Si 14.3583 7.09995 1.6264 0
413 1 Si 13.608 3.74036 1.63397 0
414 1 Si 12.3006 10.2305 1.61953 0
415 1 Si 20.2356 4.80253 1.65272 0
416 1 Si 23.6118 5.0225 1.63462 0
417 1 Si 17.7999 7.24261 1.63206 0
418 1 Si 24.3857 8.16091 1.64189 0
419 1 Si 18.9114 10.3234 1.63551 0
420 1 Si 22.162 10.5971 1.64077 0
421 1 Si 19.3256 1.67523 1.65204 0
422 1 Si 26.1221 2.67232 1.63327 0
423 1 Si 21.6821 175.769 1.63268 0
424 1 Si 25.0034 176.082 1.63139 0
425 1 Si 16.0217 1.24868 1.63154 0
426 1 Si 29.7982 6.25014 1.62221 0
427 1 Si 29.5145 3.02932 1.64292 0
428 1 Si 27.5753 8.60826 1.64556 0
429 1 Si 105.517 47.2861 1.6212 0
430 1 Si 102.401 47.491 1.63588 0
431 1 Si 98.9508 42.939 1.55119 0
432 1 Si 99.8558 45.798 1.58647 0
433 1 Si 37.4686 3.49933 1.63574 0
434 1 Si 35.5424 5.9549 1.60868 0
435 1 Si 35.7479 0.923271 1.62149 0
436 1 Si 32.3969 1.1141 1.62858 0
437 1 Si 32.7483 7.24471 1.65018 0
438 1 Si 40.6276 3.91298 1.61209 0
439 1 Si 40.651 7.05514 1.61548 0
440 1 Si 37.7741 8.10017 1.62819 0
441 1 Si 37.9851 174.961 1.61744 0
442 1 Si 35.5977 172.886 1.62917 0
443 1 Si 32.7174 174.396 1.62324 0
444 1 Si 120.459 45.5946 1.62953 0
445 1 Si 117.425 46.5845 1.64324 0
446 1 Si 43.492 2.50066 1.63592 0
447 1 Si 46.1903 4.33265 1.641 0
448 1 Si 45.9068 7.55139 1.63797 0
449 1 Si 43.055 9.04318 1.6417 0
450 1 Si 43.8192 175.772 1.62552 0
451 1 Si 41.1154 173.943 1.64673 0
452 1 Si 49.178 3.02811 1.64931 0
453 1 Si 51.735 5.02386 1.64339 0
454 1 Si 51.4049 8.26377 1.63361 0
455 1 Si 48.4541 9.48673 1.63913 0
456 1 Si 49.6445 176.269 1.64857 0
457 1 Si 46.8792 174.575 1.63042 0
458 1 Si 54.6494 3.62709 1.63283 0
459 1 Si 55.1424 0.365834 1.64062 0
460 1 Si 52.5923 174.756 1.63233 0
461 1 Si 125.285 46.3205 1.60838 0
462 1 Si 122.57 47.9736 1.61997 0
463 1 Si 140.493 45.1266 1.60938 0
464 1 Si 135.627 47.1857 1.6242 0
465 1 Si 138.671 47.7339 1.64061 0
466 1 Si 57.0683 5.71993 1.62509 0
467 1 Si 56.7388 8.94391 1.62507 0
468 1 Si 53.8743 10.3764 1.63911 0
469 1 Si 60.1019 4.67318 1.61928 0
470 1 Si 60.7463 1.39374 1.6356 0
471 1 Si 58.195 175.641 1.64794 0
472 1 Si 72.4667 2.95736 1.6174 0
473 1 Si 72.1136 6.07787 1.64603 0
474 1 Si 69.7723 1.19206 1.60644 0
475 1 Si 66.522 5.56422 1.61818 0
476 1 Si 66.6173 2.2499 1.65667 0
477 1 Si 69.2063 7.30336 1.62559 0
478 1 Si 75.347 1.54061 1.62141 0
479 1 Si 77.3845 6.02828 1.61887 0
480 1 Si 78.2477 2.87109 1.62268 0
481 1 Si 74.6815 7.88669 1.63287 0
482 1 Si 71.8022 175.149 1.63356 0
483 1 Si 75.0729 174.904 1.61614 0
484 1 Si 152.497 46.2314 1.60228 0
485 1 Si 157.964 46.4888 1.61499 0
486 1 Si 155.188 47.6418 1.66281 0
487 1 Si 89.3328 5.12653 1.61676 0
488 1 Si 86.7649 3.07593 1.63226 0
489 1 Si 82.8309 6.611 1.61855 0
490 1 Si 83.5637 3.4731 1.6266 0
491 1 Si 89.8003 8.36033 1.63614 0
492 1 Si 84.344 9.35396 1.64238 0
493 1 Si 87.2741 10.5031 1.63457 0
494 1 Si 92.0001 3.26852 1.62218 0
495 1 Si 91.0081 0.271857 1.63169 0
496 1 Si 87.8134 0.0750212 1.61175 0
497 1 Si 79.8982 7.79676 1.62427 0
498 1 Si 81.125 1.19176 1.63153 0
499 1 Si 95.1595 4.01701 1.6477 0
500 1 Si 95.7639 7.2555 1.62598 0
501 1 Si 93.0168 9.20701 1.62084 0
502 1 Si 97.5835 1.79109 1.61983 0
503 1 Si 95.6211 172.795 1.63143 0
504 1 Si 92.5605 173.989 1.61627 0
505 1 Si 98.018 174.973 1.62871 0
506 1 Si 164.815 46.8137 1.63506 0
507 1 Si 170.106 48.6281 1.61618 0
508 1 Si 166.737 49.3598 1.63006 0
509 1 Si 13.9029 13.2122 1.62498 0
510 1 Si 10.1925 17.277 1.60693 0
511 1 Si 13.2268 16.5887 1.62251 0
512 1 Si 17.1061 13.1007 1.63712 0
513 1 Si 187.151 45.7534 1.6217 0
514 1 Si 190.47 45.7962 1.623 0
515 1 Si 28.4641 11.6884 1.6443 0
516 1 Si 23.1838 13.65 1.62432 0
517 1 Si 26.3369 14.0615 1.61827 0
518 1 Si 33.5524 10.2373 1.62589 0
519 1 Si 31.5116 12.4814 1.62469 0
520 1 Si 36.5754 10.8651 1.62865 0
521 1 Si 0.406208 45.7502 1.63379 0
522 1 Si 3.93915 46.8637 1.62787 0
523 1 Si 6.77134 43.9618 1.61145 0
524 1 Si 111.245 48.402 1.62101 0
525 1 Si 107.978 49.5419 1.61939 0
526 1 Si 42.5065 12.1878 1.62462 0
527 1 Si 37.345 13.8019 1.61532 0
528 1 Si 40.3273 14.56 1.6352 0
529 1 Si 116.733 49.8531 1.64976 0
530 1 Si 113.588 50.7996 1.6456 0
531 1 Si 47.9231 12.6511 1.6428 0
532 1 Si 45.0648 13.9832 1.63147 0
533 1 Si 61.397 7.7197 1.62687 0
534 1 Si 59.5465 10.4814 1.62315 0
535 1 Si 130.662 47.3321 1.62233 0
536 1 Si 127.673 48.3528 1.63148 0
537 1 Si 64.5382 8.17963 1.62961 0
538 1 Si 63.8831 0.267089 1.6378 0
539 1 Si 68.807 10.4556 1.63722 0
540 1 Si 65.7545 11.2588 1.61628 0
541 1 Si 142.877 47.1984 1.62529 0
542 1 Si 74.0811 11.0922 1.63 0
543 1 Si 71.2032 12.5474 1.64832 0
544 1 Si 79.3118 10.8645 1.6367 0
545 1 Si 82.2616 11.6918 1.63358 0
546 1 Si 151.825 49.2079 1.60435 0
547 1 Si 147.183 50.0531 1.63375 0
548 1 Si 149.84 51.5508 1.63254 0
549 1 Si 161.637 47.0411 1.63331 0
550 1 Si 159.52 49.4765 1.60298 0
551 1 Si 93.5117 12.3849 1.63458 0
552 1 Si 181.911 46.8955 1.60733 0
553 1 Si 178.6 47.7169 1.63083 0
554 1 Si 185.06 48.2953 1.63376 0
555 1 Si 18.3176 16.1583 1.61946 0
556 1 Si 21.4662 16.3585 1.61926 0
557 1 Si 122.116 51.1916 1.64482 0
558 1 Si 119.074 52.2446 1.64299 0
559 1 Si 131.784 50.361 1.62383 0
560 1 Si 134.871 50.6001 1.6277 0
561 1 Si 53.2438 13.5503 1.61576 0
562 1 Si 50.2721 14.7256 1.62329 0
563 1 Si 127.239 51.5616 1.62842 0
564 1 Si 124.573 53.3304 1.63987 0
565 1 Si 142.67 50.3048 1.64181 0
566 1 Si 139.634 50.8235 1.63176 0
567 1 Si 59.7305 13.8161 1.62734 0
568 1 Si 54.5869 16.4594 1.62225 0
569 1 Si 57.7315 16.4379 1.63392 0
570 1 Si 154.554 50.633 1.59752 0
571 1 Si 76.8027 12.696 1.6315 0
572 1 Si 86.3601 13.6995 1.63065 0
573 1 Si 83.215 14.6457 1.60526 0
574 1 Si 91.4397 14.974 1.60512 0
575 1 Si 88.3639 16.1699 1.62651 0
576 1 Si 172.087 51.1666 1.62486 0
577 1 Si 164.611 52.1641 1.6415 0
578 1 Si 170.164 53.596 1.62746 0
579 1 Si 167.084 53.9652 1.64731 0
580 1 Si 178.23 50.8863 1.63347 0
581 1 Si 175.19 51.9834 1.61794 0
582 1 Si 8.90981 20.2228 1.60287 0
583 1 Si 17.6563 19.3976 1.62738 0
584 1 Si 14.4968 19.8479 1.62731 0
585 1 Si 186.364 51.4725 1.63306 0
586 1 Si 107.286 52.9358 1.62337 0
587 1 Si 104.252 54.4314 1.61498 0
588 1 Si 100.909 54.3807 1.62729 0
589 1 Si 99.8141 49.1827 1.6026 0
590 1 Si 98.7816 52.0898 1.62306 0
591 1 Si 34.2357 14.0879 1.62386 0
592 1 Si 27.2519 17.1029 1.62544 0
593 1 Si 30.3123 17.443 1.59339 0
594 1 Si 33.3284 16.9165 1.65225 0
595 1 Si 113.091 54.1085 1.64589 0
596 1 Si 109.93 55.1247 1.62392 0
597 1 Si 44.3049 17.0729 1.62369 0
598 1 Si 41.176 17.6613 1.62218 0
599 1 Si 130.007 53.058 1.6233 0
600 1 Si 65.3043 14.532 1.63178 0
601 1 Si 62.3488 15.684 1.62514 0
602 1 Si 144.979 52.447 1.62823 0
603 1 Si 70.769 15.7671 1.63542 0
604 1 Si 67.5663 16.9699 1.6346 0
605 1 Si 77.2356 15.8077 1.63848 0
606 1 Si 73.9946 16.8194 1.62216 0
607 1 Si 159.174 52.9532 1.62514 0
608 1 Si 161.974 54.555 1.63885 0
609 1 Si 80.5442 16.5613 1.65036 0
610 1 Si 154.022 53.6484 1.62231 0
611 1 Si 150.978 54.4435 1.62192 0
612 1 Si 180.636 53.1153 1.62167 0
613 1 Si 176.011 55.0323 1.62673 0
614 1 Si 179.005 55.8403 1.62601 0
615 1 Si 93.206 17.6081 1.62588 0
616 1 Si 183.83 53.6024 1.63757 0
617 1 Si 2.40777 53.3319 1.61837 0
618 1 Si 4.64133 50.5763 1.63891 0
619 1 Si 22.4497 19.4522 1.61894 0
620 1 Si 20.0963 21.6615 1.62475 0
621 1 Si 118.772 55.5551 1.63923 0
622 1 Si 115.576 56.4259 1.63769 0
623 1 Si 25.5993 19.8808 1.63096 0
624 1 Si 124.579 56.6746 1.64073 0
625 1 Si 121.371 57.7762 1.63376 0
626 1 Si 49.6923 17.9142 1.63854 0
627 1 Si 46.6546 19.238 1.63563 0
628 1 Si 52.6769 19.144 1.6381 0
629 1 Si 138.808 53.9563 1.64364 0
630 1 Si 135.565 54.0022 1.6325 0
631 1 Si 144.427 55.6823 1.62729 0
632 1 Si 141.158 56.3389 1.6203 0
633 1 Si 61.6775 18.8245 1.61602 0
634 1 Si 58.6484 19.5598 1.58882 0
635 1 Si 156.636 55.3263 1.63062 0
636 1 Si 171.353 56.4614 1.63149 0
637 1 Si 166.313 56.9115 1.61634 0
638 1 Si 169.006 58.3649 1.62796 0
639 1 Si 174.214 57.5804 1.62186 0
640 1 Si 87.2811 19.3333 1.61765 0
641 1 Si 81.6712 19.5372 1.61991 0
642 1 Si 84.5376 20.971 1.633 0
643 1 Si 92.1599 20.6061 1.63254 0
644 1 Si 89.2754 21.8485 1.61343 0
645 1 Si 184.529 56.7487 1.62116 0
646 1 Si 187.394 57.9914 1.62251 0
647 1 Si 97.2689 20.78 1.58935 0
648 1 Si 10.0529 23.3857 1.61808 0
649 1 Si 13.4184 23.1775 1.61375 0
650 1 Si 104.375 57.6124 1.6244 0
651 1 Si 101.457 58.6869 1.62218 0
652 1 Si 98.8556 56.9106 1.59247 0
653 1 Si 109.637 58.4556 1.63744 0
654 1 Si 106.687 59.744 1.64174 0
655 1 Si 31.8854 20.1091 1.61083 0
656 1 Si 27.1676 22.6798 1.62164 0
657 1 Si 30.3193 22.6877 1.60891 0
658 1 Si 34.9183 19.5022 1.59133 0
659 1 Si 115.022 59.6998 1.64333 0
660 1 Si 111.929 60.7886 1.64599 0
661 1 Si 39.9834 20.6873 1.62203 0
662 1 Si 36.9563 21.7842 1.63363 0
663 1 Si 130.318 56.2961 1.63194 0
664 1 Si 127.639 58.3519 1.6326 0
665 1 Si 45.4028 22.2972 1.63438 0
666 1 Si 42.126 23.1152 1.61343 0
667 1 Si 133.581 56.8522 1.62795 0
668 1 Si 66.2872 20.1267 1.61584 0
669 1 Si 63.3076 21.5335 1.61827 0
670 1 Si 73.9281 19.9165 1.64559 0
671 1 Si 71.1635 21.4394 1.5917 0
672 1 Si 68.2134 22.6221 1.64103 0
673 1 Si 149.863 57.3986 1.64522 0
674 1 Si 146.726 58.1207 1.6196 0
675 1 Si 76.5811 21.6075 1.609 0
676 1 Si 79.6558 21.9205 1.62433 0
677 1 Si 161.327 58.0395 1.65058 0
678 1 Si 164.222 59.1102 1.64407 0
679 1 Si 155.259 58.43 1.63755 0
680 1 Si 152.185 59.6005 1.63085 0
681 1 Si 92.8522 23.7315 1.61748 0
682 1 Si 95.8546 23.5051 1.64978 0
683 1 Si 179.693 58.9859 1.62651 0
684 1 Si 182.792 59.4352 1.61599 0
685 1 Si 174.721 60.7145 1.64042 0
686 1 Si 177.829 61.6447 1.62312 0
687 1 Si 20.641 24.9821 1.63104 0
688 1 Si 14.9883 26.2942 1.6547 0
689 1 Si 18.2345 27.2046 1.62226 0
690 1 Si 3.20941 56.5846 1.61919 0
691 1 Si 1.08908 59.1042 1.62558 0
692 1 Si 26.5435 25.8008 1.62715 0
693 1 Si 23.4438 26.7868 1.61514 0
694 1 Si 6.14563 57.8765 1.63875 0
695 1 Si 7.72813 52.1085 1.62491 0
696 1 Si 8.19506 55.4098 1.62135 0
697 1 Si 105.788 62.8528 1.64171 0
698 1 Si 102.718 63.8337 1.63522 0
699 1 Si 100.524 61.6275 1.63446 0
700 1 Si 32.1138 25.2468 1.61766 0
701 1 Si 35.3166 24.6224 1.63514 0
702 1 Si 53.2479 22.3978 1.62987 0
703 1 Si 47.5972 24.6857 1.62426 0
704 1 Si 50.9228 24.6375 1.62417 0
705 1 Si 120.628 61.0488 1.6355 0
706 1 Si 117.392 61.9745 1.63598 0
707 1 Si 58.8015 22.8147 1.63544 0
708 1 Si 55.9889 24.2569 1.61883 0
709 1 Si 128.557 61.7115 1.63029 0
710 1 Si 122.842 63.5187 1.62309 0
711 1 Si 126.12 64.141 1.62822 0
712 1 Si 134.404 60.1149 1.63426 0
713 1 Si 140.562 59.5496 1.63253 0
714 1 Si 137.64 61.0007 1.61878 0
715 1 Si 61.6975 24.4009 1.62979 0
716 1 Si 72.3704 24.2762 1.63531 0
717 1 Si 75.4019 24.4494 1.61953 0
718 1 Si 156.567 61.362 1.62642 0
719 1 Si 159.758 61.1 1.63523 0
720 1 Si 84.2754 24.2182 1.62542 0
721 1 Si 81.1925 24.6877 1.63857 0
722 1 Si 168.867 61.392 1.62809 0
723 1 Si 165.753 61.855 1.64577 0
724 1 Si 88.9756 25.1235 1.62542 0
725 1 Si 86.2186 26.8537 1.63506 0
726 1 Si 171.905 62.2708 1.62716 0
727 1 Si 91.7 26.7343 1.63899 0
728 1 Si 96.8733 26.4305 1.6181 0
729 1 Si 187.501 61.1973 1.61538 0
730 1 Si 184.445 62.1964 1.63226 0
731 1 Si 13.236 29.1016 1.61307 0
732 1 Si 190.58 62.1942 1.63334 0
733 1 Si 111.075 64.0027 1.63866 0
734 1 Si 108.015 65.1221 1.63886 0
735 1 Si 29.5213 27.2278 1.62406 0
736 1 Si 116.288 65.1152 1.63368 0
737 1 Si 113.254 66.3961 1.64163 0
738 1 Si 40.5989 26.0587 1.63632 0
739 1 Si 37.4163 26.9976 1.63099 0
740 1 Si 131.966 62.5118 1.61863 0
741 1 Si 42.7723 28.368 1.63662 0
742 1 Si 45.8508 27.4362 1.61656 0
743 1 Si 52.6949 27.3516 1.61201 0
744 1 Si 55.8995 27.511 1.61629 0
745 1 Si 67.756 25.844 1.61607 0
746 1 Si 62.8178 27.6257 1.6371 0
747 1 Si 65.9844 28.5625 1.62968 0
748 1 Si 146.257 61.4276 1.62141 0
749 1 Si 143.037 61.7607 1.62024 0
750 1 Si 138.786 64.0589 1.62428 0
751 1 Si 133.34 65.596 1.63409 0
752 1 Si 136.562 66.2865 1.61736 0
753 1 Si 70.7061 26.8594 1.61859 0
754 1 Si 151.599 62.8548 1.63139 0
755 1 Si 148.458 64.0685 1.6266 0
756 1 Si 76.6864 27.2003 1.62498 0
757 1 Si 79.7692 27.4575 1.6129 0
758 1 Si 154.629 64.0767 1.63006 0
759 1 Si 160.835 64.2622 1.62374 0
760 1 Si 164.073 64.4983 1.61127 0
761 1 Si 179.443 64.5859 1.61273 0
762 1 Si 182.826 65.0155 1.62226 0
763 1 Si 19.6641 30.2761 1.62832 0
764 1 Si 23.096 30.0473 1.60799 0
765 1 Si 171.657 65.3238 1.6341 0
766 1 Si 174.357 66.9974 1.60674 0
767 1 Si 177.564 67.2479 1.63473 0
768 1 Si 1.60323 62.4208 1.63427 0
769 1 Si 197.978 63.8011 1.61301 0
770 1 Si 201.144 64.8015 1.62532 0
771 1 Si 29.6918 30.4236 1.62948 0
772 1 Si 33.0649 31.3548 1.63168 0
773 1 Si 36.0766 29.9525 1.62991 0
774 1 Si 4.74314 63.5485 1.64577 0
775 1 Si 7.03595 61.1252 1.62552 0
776 1 Si 121.444 66.4359 1.62603 0
777 1 Si 118.42 67.4541 1.63241 0
778 1 Si 71.9686 29.7223 1.61914 0
779 1 Si 75.0576 29.8165 1.64374 0
780 1 Si 126.294 67.5449 1.62809 0
781 1 Si 123.299 68.9788 1.60525 0
782 1 Si 85.5093 30.2212 1.62586 0
783 1 Si 79.8746 30.5886 1.63672 0
784 1 Si 82.6737 31.9437 1.60682 0
785 1 Si 141.959 64.7814 1.61967 0
786 1 Si 92.4744 29.9484 1.64467 0
787 1 Si 87.355 32.9756 1.61982 0
788 1 Si 90.7491 32.9701 1.62476 0
789 1 Si 95.6409 29.3332 1.62987 0
790 1 Si 155.678 67.2691 1.61631 0
791 1 Si 159.057 67.1 1.62506 0
792 1 Si 165.801 67.1827 1.62708 0
793 1 Si 168.956 66.989 1.60597 0
794 1 Si 14.3398 32.1876 1.61885 0
795 1 Si 11.9529 34.391 1.61271 0
796 1 Si 17.5251 32.882 1.62336 0
797 1 Si 190.8 65.7752 1.6257 0
798 1 Si 184.638 67.8586 1.62471 0
799 1 Si 188.091 67.9618 1.63381 0
800 1 Si 196.763 67.2051 1.62628 0
801 1 Si 193.428 67.9905 1.62186 0
802 1 Si 26.3201 31.5386 1.61939 0
803 1 Si 26.5754 34.76 1.63159 0
804 1 Si 34.4356 34.3378 1.61892 0
805 1 Si 29.5451 36.3831 1.60023 0
806 1 Si 32.8738 37.0592 1.63437 0
807 1 Si 38.5778 31.9719 1.62772 0
808 1 Si 41.6771 31.3878 1.63421 0
809 1 Si 106.976 68.2142 1.64576 0
810 1 Si 103.775 68.8949 1.63907 0
811 1 Si 101.395 66.7335 1.63523 0
812 1 Si 112.355 69.6395 1.63661 0
813 1 Si 109.174 70.6288 1.63891 0
814 1 Si 47.6572 29.9291 1.62657 0
815 1 Si 50.7657 29.7483 1.62186 0
816 1 Si 132.023 68.5995 1.61807 0
817 1 Si 128.814 69.6805 1.62977 0
818 1 Si 57.8325 30.1677 1.63558 0
819 1 Si 61.0745 30.4273 1.62537 0
820 1 Si 147.439 67.4364 1.63525 0
821 1 Si 143.777 67.5673 1.63088 0
822 1 Si 67.2675 31.7629 1.64641 0
823 1 Si 70.4946 32.5455 1.614 0
824 1 Si 150.115 70.3676 1.6468 0
825 1 Si 153.891 70.314 1.63549 0
826 1 Si 77.0894 32.1545 1.63061 0
827 1 Si 164.032 69.8634 1.61214 0
828 1 Si 160.789 69.8944 1.62959 0
829 1 Si 171.644 68.5253 1.62516 0
830 1 Si 179.213 70.0958 1.61856 0
831 1 Si 171.471 71.484 1.62505 0
832 1 Si 174.226 72.7761 1.61901 0
833 1 Si 177.352 72.6903 1.60487 0
834 1 Si 182.482 70.5238 1.61925 0
835 1 Si 0.0847904 68.1094 1.62826 0
836 1 Si 199.128 69.9155 1.61925 0
837 1 Si 17.7969 36.1783 1.63523 0
838 1 Si 23.9124 36.6393 1.60896 0
839 1 Si 20.7688 37.371 1.62577 0
840 1 Si 3.32183 69.347 1.62752 0
841 1 Si 5.58741 66.8472 1.63704 0
842 1 Si 117.764 70.6347 1.61655 0
843 1 Si 114.691 72.0068 1.64087 0
844 1 Si 37.6368 34.9553 1.62191 0
845 1 Si 120.973 71.3725 1.6335 0
846 1 Si 43.6015 33.9382 1.62097 0
847 1 Si 46.4805 32.8231 1.64195 0
848 1 Si 137.784 69.298 1.60911 0
849 1 Si 134.701 70.5785 1.62731 0
850 1 Si 51.262 32.7499 1.61823 0
851 1 Si 56.7266 33.1554 1.61404 0
852 1 Si 53.8654 34.2328 1.63082 0
853 1 Si 141.2 69.8847 1.63027 0
854 1 Si 62.2461 33.5133 1.62488 0
855 1 Si 65.2999 34.4223 1.61167 0
856 1 Si 72.5504 35.236 1.63833 0
857 1 Si 76.0197 35.1359 1.63128 0
858 1 Si 82.0746 35.2102 1.61174 0
859 1 Si 85.3651 35.7643 1.62611 0
860 1 Si 168.701 72.8094 1.63375 0