ITEM: TIMESTEP
1503
ITEM: NUMBER OF ATOMS
15504
ITEM: BOX BOUNDS pp pp pp
0.0000000000000000e+00 2.0319028554196578e+02
0.0000000000000000e+00 1.7744789514505030e+02
-1.0000000000000000e+02 1.0000000000000000e+02
ITEM: ATOMS id type element x y z v_uncoordination
1 1 Si 153.588 43.4512 1.62379 0
2 1 Si 155.141 40.5381 1.61664 0
3 1 Si 150.263 44.1834 1.62835 0
4 1 Si 147.7 42.0887 1.61592 0
5 1 Si 150.5 37.088 1.61766 0
6 1 Si 147.809 38.8511 1.65818 0
7 1 Si 153.679 37.695 1.61839 0
8 1 Si 156.258 45.4212 1.61623 0
9 1 Si 158.412 40.7213 1.61794 0
10 1 Si 159.145 43.8522 1.61847 0
11 1 Si 148.707 47.1103 1.6156 0
12 1 Si 156.51 48.6751 1.63391 0
13 1 Si 150.269 50.0066 1.63077 0
14 1 Si 153.633 50.3613 1.6327 0
15 1 Si 108.763 7.24742 1.61584 0
16 1 Si 106.451 9.34549 1.6323 0
17 1 Si 111.583 8.60199 1.63072 0
18 1 Si 111.013 11.6247 1.62504 0
19 1 Si 107.856 12.2261 1.61996 0
20 1 Si 109.14 4.22205 1.64889 0
21 1 Si 103.546 8.06868 1.62157 0
22 1 Si 102.819 4.79153 1.61925 0
23 1 Si 104.065 1.61725 1.62335 0
24 1 Si 107.201 1.8054 1.63045 0
25 1 Si 114.124 6.82614 1.61616 0
26 1 Si 112.248 4.34514 1.6161 0
27 1 Si 116.868 1.37836 1.6211 0
28 1 Si 113.819 1.78684 1.61916 0
29 1 Si 118.921 3.70343 1.62784 0
30 1 Si 117.261 6.48468 1.63346 0
31 1 Si 116.9 175.695 1.63576 0
32 1 Si 113.957 174.522 1.61392 0
33 1 Si 111.907 176.844 1.61344 0
34 1 Si 121.979 2.616 1.63343 0
35 1 Si 123.82 5.37236 1.6304 0
36 1 Si 121.956 8.17658 1.62583 0
37 1 Si 118.744 9.23717 1.62445 0
38 1 Si 122.372 176.67 1.63185 0
39 1 Si 119.732 174.343 1.62722 0
40 1 Si 127.173 5.70606 1.62142 0
41 1 Si 129.523 3.44072 1.62808 0
42 1 Si 128.883 177.42 1.63906 0
43 1 Si 125.521 175.485 1.63028 0
44 1 Si 128.786 8.62017 1.62066 0
45 1 Si 123.752 10.7632 1.62657 0
46 1 Si 126.935 11.2183 1.62032 0
47 1 Si 132.345 5.48132 1.62042 0
48 1 Si 135.254 3.91008 1.61749 0
49 1 Si 134.87 0.526773 1.6127 0
50 1 Si 132.037 176.012 1.62912 0
51 1 Si 132.052 8.88317 1.6239 0
52 1 Si 141.124 3.63234 1.61161 0
53 1 Si 140.961 0.344832 1.64532 0
54 1 Si 138.308 5.49319 1.61495 0
55 1 Si 137.853 176.588 1.62784 0
56 1 Si 146.911 3.51264 1.6364 0
57 1 Si 144.113 5.06038 1.62989 0
58 1 Si 149.522 5.17328 1.62601 0
59 1 Si 150.18 8.18586 1.63442 0
60 1 Si 144.706 8.30501 1.61991 0
61 1 Si 147.557 10.0036 1.63756 0
62 1 Si 148.54 0.748943 1.63035 0
63 1 Si 143.683 175.849 1.64132 0
64 1 Si 146.939 175.548 1.62893 0
65 1 Si 152.146 3.5071 1.62886 0
66 1 Si 151.732 0.501217 1.62224 0
67 1 Si 154.827 4.99533 1.63037 0
68 1 Si 153.393 7.8961 1.62703 0
69 1 Si 157.494 3.20692 1.63041 0
70 1 Si 157.432 177.301 1.64096 0
71 1 Si 154.349 176.136 1.60629 0
72 1 Si 159.954 5.33772 1.62436 0
73 1 Si 158.622 8.6661 1.6279 0
74 1 Si 155.492 10.2181 1.62255 0
75 1 Si 162.873 3.44566 1.64391 0
76 1 Si 162.923 177.443 1.62195 0
77 1 Si 160.269 175.5 1.61253 0
78 1 Si 165.671 5.27871 1.61647 0
79 1 Si 165.865 8.49345 1.61826 0
80 1 Si 160.571 11.273 1.62756 0
81 1 Si 163.793 11.0027 1.62176 0
82 1 Si 168.965 5.43641 1.61446 0
83 1 Si 170.337 2.73258 1.64413 0
84 1 Si 169.918 177.157 1.62114 0
85 1 Si 165.25 175.098 1.60273 0
86 1 Si 168.417 174.509 1.61555 0
87 1 Si 171.458 7.66008 1.61397 0
88 1 Si 168.872 9.72918 1.62269 0
89 1 Si 173.372 2.4749 1.58062 0
90 1 Si 172.951 176.859 1.58821 0
91 1 Si 176.414 2.46616 1.62714 0
92 1 Si 177.941 5.13878 1.61481 0
93 1 Si 175.055 7.36469 1.62733 0
94 1 Si 177.645 176.975 1.62942 0
95 1 Si 175.282 174.857 1.61591 0
96 1 Si 180.969 3.10556 1.62218 0
97 1 Si 180.83 176.801 1.61793 0
98 1 Si 187.175 3.32781 1.62789 0
99 1 Si 183.793 5.07698 1.63019 0
100 1 Si 190.375 4.55843 1.58197 0
101 1 Si 193.215 6.47504 1.62104 0
102 1 Si 182.753 8.85932 1.62467 0
103 1 Si 190.932 8.55145 1.63941 0
104 1 Si 187.876 9.58836 1.58359 0
105 1 Si 184.994 11.315 1.61568 0
106 1 Si 188.357 0.126546 1.62945 0
107 1 Si 185.132 172.388 1.62958 0
108 1 Si 181.798 173.089 1.63954 0
109 1 Si 187.844 174.344 1.61795 0
110 1 Si 192.956 2.61859 1.62706 0
111 1 Si 191.607 177.296 1.62121 0
112 1 Si 198.292 4.50773 1.62362 0
113 1 Si 201.506 3.92596 1.63148 0
114 1 Si 196.539 7.18282 1.62446 0
115 1 Si 0.341084 6.54454 1.63733 0
116 1 Si 198.903 9.46626 1.63546 0
117 1 Si 202.155 9.52078 1.62221 0
118 1 Si 196.126 2.25414 1.63793 0
119 1 Si 202.617 0.799882 1.64487 0
120 1 Si 200.43 175.798 1.63212 0
121 1 Si 197.321 176.743 1.62257 0
122 1 Si 3.58297 6.0416 1.63457 0
123 1 Si 4.5434 2.81269 1.64 0
124 1 Si 2.64211 0.065051 1.63876 0
125 1 Si 101.201 10.3622 1.62278 0
126 1 Si 99.6572 5.28301 1.61296 0
127 1 Si 98.6599 8.37132 1.62787 0
128 1 Si 144.706 43.4581 1.62018 0
129 1 Si 145.393 46.6499 1.62105 0
130 1 Si 139.715 48.6161 1.63681 0
131 1 Si 143.121 49.0383 1.62329 0
132 1 Si 141.805 41.8251 1.64944 0
133 1 Si 138.641 42.8256 1.61514 0
134 1 Si 137.669 45.9587 1.61683 0
135 1 Si 138.196 51.4996 1.62053 0
136 1 Si 144.794 51.9426 1.61153 0
137 1 Si 139.987 54.0106 1.62785 0
138 1 Si 143.06 54.5917 1.63661 0
139 1 Si 116.857 12.0355 1.63313 0
140 1 Si 113.726 13.2617 1.62837 0
141 1 Si 122.253 13.5453 1.61965 0
142 1 Si 119.13 14.2698 1.64866 0
143 1 Si 138.995 8.79171 1.62281 0
144 1 Si 142.027 9.98432 1.61898 0
145 1 Si 176.561 10.1599 1.63805 0
146 1 Si 179.747 10.7265 1.62873 0
147 1 Si 193.269 10.9855 1.56352 0
148 1 Si 190.024 11.8482 1.61617 0
149 1 Si 198.307 12.5584 1.60568 0
150 1 Si 195.311 13.2882 1.63855 0
151 1 Si 203.104 12.7251 1.63061 0
152 1 Si 2.87604 14.094 1.62618 0
153 1 Si 5.38583 12.0047 1.63091 0
154 1 Si 5.72752 8.63482 1.6408 0
155 1 Si 106.814 15.2509 1.63516 0
156 1 Si 112.48 16.3019 1.62727 0
157 1 Si 109.347 17.4167 1.64157 0
158 1 Si 127.574 14.4165 1.64243 0
159 1 Si 124.59 15.7385 1.61151 0
160 1 Si 134.075 11.7268 1.65375 0
161 1 Si 130.449 16.0657 1.62095 0
162 1 Si 133.513 15.009 1.62479 0
163 1 Si 137.337 11.594 1.63771 0
164 1 Si 147.969 13.2454 1.62507 0
165 1 Si 142.404 13.1642 1.62879 0
166 1 Si 145.122 14.8713 1.62966 0
167 1 Si 153.932 13.2613 1.62592 0
168 1 Si 150.899 14.7807 1.6426 0
169 1 Si 159.404 14.3699 1.614 0
170 1 Si 156.378 15.3474 1.63985 0
171 1 Si 165.126 13.9782 1.60522 0
172 1 Si 160.923 17.2733 1.62474 0
173 1 Si 164.112 17.1668 1.6332 0
174 1 Si 168.183 12.9233 1.61313 0
175 1 Si 175.327 13.0831 1.59951 0
176 1 Si 169.898 15.5728 1.62082 0
177 1 Si 173.071 15.3558 1.62136 0
178 1 Si 183.913 14.8742 1.63351 0
179 1 Si 189.244 14.7205 1.60627 0
180 1 Si 186.625 16.3174 1.65056 0
181 1 Si 200.595 14.7842 1.6117 0
182 1 Si 103.583 15.8735 1.62199 0
183 1 Si 101.074 13.6556 1.64265 0
184 1 Si 118.078 17.2578 1.61341 0
185 1 Si 114.993 18.2347 1.62491 0
186 1 Si 123.526 18.8328 1.635 0
187 1 Si 120.258 19.5998 1.60908 0
188 1 Si 139.403 14.1387 1.6303 0
189 1 Si 178.451 13.787 1.61095 0
190 1 Si 178.894 17.0333 1.62878 0
191 1 Si 181.935 18.0357 1.6439 0
192 1 Si 194.752 16.3396 1.61767 0
193 1 Si 191.698 16.5316 1.62259 0
194 1 Si 199.981 18.01 1.64504 0
195 1 Si 196.841 18.7262 1.62262 0
196 1 Si 3.6716 17.3575 1.61597 0
197 1 Si 6.36071 19.3142 1.62017 0
198 1 Si 7.79139 14.2551 1.62201 0
199 1 Si 8.83837 17.4112 1.62891 0
200 1 Si 108.829 20.724 1.64551 0
201 1 Si 105.551 21.6329 1.62989 0
202 1 Si 102.823 19.073 1.60895 0
203 1 Si 131.524 19.1653 1.61638 0
204 1 Si 126.067 20.8304 1.63355 0
205 1 Si 129.302 21.3194 1.62389 0
206 1 Si 135.78 17.535 1.63066 0
207 1 Si 134.579 20.5238 1.61706 0
208 1 Si 139.054 17.3416 1.63076 0
209 1 Si 144.837 18.0892 1.63328 0
210 1 Si 141.753 19.3422 1.63413 0
211 1 Si 150.64 18.1242 1.63732 0
212 1 Si 147.726 19.6817 1.6469 0
213 1 Si 156.207 18.5469 1.62737 0
214 1 Si 153.36 19.9913 1.63369 0
215 1 Si 159.107 19.9771 1.62226 0
216 1 Si 168.79 18.649 1.62546 0
217 1 Si 165.868 20.0555 1.6306 0
218 1 Si 173.607 18.5233 1.62129 0
219 1 Si 171.203 20.6862 1.62276 0
220 1 Si 176.589 19.47 1.63331 0
221 1 Si 190.42 19.234 1.62611 0
222 1 Si 187.354 19.2702 1.61656 0
223 1 Si 2.00984 20.0484 1.62875 0
224 1 Si 202.074 20.5254 1.62464 0
225 1 Si 114.517 21.3813 1.60985 0
226 1 Si 111.567 22.9168 1.63952 0
227 1 Si 117.776 21.7765 1.62281 0
228 1 Si 192.271 21.6323 1.63175 0
229 1 Si 195.379 21.5408 1.64182 0
230 1 Si 3.53845 22.8856 1.62288 0
231 1 Si 6.68463 22.6185 1.62405 0
232 1 Si 111.791 26.4455 1.62771 0
233 1 Si 108.697 27.5072 1.61893 0
234 1 Si 105.901 25.174 1.62795 0
235 1 Si 125.788 23.8675 1.61244 0
236 1 Si 118.23 24.8043 1.62397 0
237 1 Si 120.88 26.2849 1.5937 0
238 1 Si 123.856 26.1743 1.64106 0
239 1 Si 131.086 24.0465 1.61795 0
240 1 Si 128.424 25.4922 1.62808 0
241 1 Si 136.056 23.6399 1.63787 0
242 1 Si 133.711 25.9309 1.63701 0
243 1 Si 141.789 22.6068 1.62294 0
244 1 Si 139.28 24.7232 1.62207 0
245 1 Si 147.705 22.955 1.63413 0
246 1 Si 144.668 24.1886 1.62687 0
247 1 Si 153.577 23.267 1.64427 0
248 1 Si 150.573 24.6668 1.63695 0
249 1 Si 159.529 23.2487 1.63279 0
250 1 Si 156.567 24.8399 1.63959 0
251 1 Si 165.559 23.5367 1.63782 0
252 1 Si 162.495 24.9074 1.63766 0
253 1 Si 171.001 23.9984 1.62998 0
254 1 Si 168.205 25.8482 1.63272 0
255 1 Si 176.303 22.7575 1.62302 0
256 1 Si 174 25.206 1.63522 0
257 1 Si 181.709 21.668 1.63957 0
258 1 Si 179.215 23.9838 1.61012 0
259 1 Si 187.003 22.2655 1.64745 0
260 1 Si 184.271 23.6645 1.62155 0
261 1 Si 189.848 23.5273 1.64326 0
262 1 Si 201.887 23.824 1.62107 0
263 1 Si 196.192 24.5468 1.62008 0
264 1 Si 199.191 25.6108 1.62442 0
265 1 Si 1.57278 25.4026 1.61877 0
266 1 Si 116.807 27.5284 1.62037 0
267 1 Si 114.254 29.196 1.65273 0
268 1 Si 119.481 29.0013 1.59052 0
269 1 Si 190.655 26.4719 1.64524 0
270 1 Si 193.812 26.7238 1.63087 0
271 1 Si 103.469 30.0842 1.62666 0
272 1 Si 103.058 26.8186 1.61505 0
273 1 Si 109.107 30.9215 1.6233 0
274 1 Si 106.053 32.021 1.61256 0
275 1 Si 128.33 28.5387 1.64823 0
276 1 Si 125.315 28.8779 1.62978 0
277 1 Si 133.479 29.3015 1.64836 0
278 1 Si 130.508 30.7041 1.62709 0
279 1 Si 140.829 27.7625 1.6302 0
280 1 Si 135.832 31.6398 1.61806 0
281 1 Si 139.238 30.8016 1.62663 0
282 1 Si 144.258 27.409 1.62156 0
283 1 Si 156.604 28.1699 1.63862 0
284 1 Si 150.473 27.9143 1.6318 0
285 1 Si 153.495 29.4962 1.63302 0
286 1 Si 162.454 28.2414 1.62147 0
287 1 Si 159.591 29.8056 1.62596 0
288 1 Si 168.176 29.5492 1.62438 0
289 1 Si 164.986 30.4336 1.62243 0
290 1 Si 174.771 28.4611 1.60671 0
291 1 Si 170.329 32.6403 1.6266 0
292 1 Si 173.652 31.8599 1.63333 0
293 1 Si 177.79 27.026 1.61387 0
294 1 Si 185.064 26.7904 1.6336 0
295 1 Si 179.562 29.5462 1.63187 0
296 1 Si 182.636 28.7722 1.61694 0
297 1 Si 188.009 28.1879 1.63922 0
298 1 Si 198.335 28.7166 1.61455 0
299 1 Si 203.14 31.1172 1.61795 0
300 1 Si 199.977 31.4089 1.62353 0
301 1 Si 2.15096 28.6574 1.64492 0
302 1 Si 100.598 31.417 1.62389 0
303 1 Si 99.8185 26.0948 1.62322 0
304 1 Si 98.4957 29.0404 1.6085 0
305 1 Si 116.261 32.3819 1.63664 0
306 1 Si 111.366 33.5291 1.64383 0
307 1 Si 114.458 35.0085 1.62258 0
308 1 Si 123.998 31.5826 1.62555 0
309 1 Si 120.94 31.6286 1.63379 0
310 1 Si 128.906 33.5575 1.64031 0
311 1 Si 125.651 34.1698 1.61916 0
312 1 Si 147.266 29.088 1.63232 0
313 1 Si 195.225 29.4875 1.61413 0
314 1 Si 188.503 31.3274 1.631 0
315 1 Si 191.034 33.2078 1.63086 0
316 1 Si 194.057 32.4189 1.6182 0
317 1 Si 119.29 34.1832 1.58828 0
318 1 Si 134.445 34.8793 1.62925 0
319 1 Si 131.127 35.8764 1.62903 0
320 1 Si 141.25 33.4681 1.62498 0
321 1 Si 136.65 37.3954 1.64667 0
322 1 Si 139.809 36.4182 1.64001 0
323 1 Si 147.301 32.3421 1.64637 0
324 1 Si 144.51 34.0352 1.63463 0
325 1 Si 153.267 32.734 1.64281 0
326 1 Si 150.208 33.8885 1.62467 0
327 1 Si 160.8 32.9165 1.62088 0
328 1 Si 155.585 35.062 1.61105 0
329 1 Si 158.901 35.4916 1.62735 0
330 1 Si 164.07 33.5866 1.62146 0
331 1 Si 165.861 36.5178 1.64283 0
332 1 Si 169.315 36.322 1.62741 0
333 1 Si 178.365 32.5168 1.63074 0
334 1 Si 175.891 34.5286 1.61914 0
335 1 Si 183.224 31.789 1.63695 0
336 1 Si 181.043 33.9837 1.62351 0
337 1 Si 185.952 33.1124 1.61556 0
338 1 Si 0.320413 34.3172 1.61365 0
339 1 Si 198.895 34.5041 1.62843 0
340 1 Si 201.293 36.6406 1.60089 0
341 1 Si 5.15461 29.8429 1.63001 0
342 1 Si 3.2805 35.2614 1.66278 0
343 1 Si 5.5045 33.023 1.61061 0
344 1 Si 8.72797 25.2416 1.65637 0
345 1 Si 8.06849 28.4665 1.6249 0
346 1 Si 106.577 35.1573 1.62491 0
347 1 Si 104.662 37.6166 1.61853 0
348 1 Si 101.341 37.2246 1.63085 0
349 1 Si 99.473 34.4213 1.62511 0
350 1 Si 109.621 36.1335 1.60857 0
351 1 Si 115.822 38.2475 1.62457 0
352 1 Si 110.189 39.2551 1.63252 0
353 1 Si 113.223 40.5412 1.62671 0
354 1 Si 122.53 35.4117 1.63443 0
355 1 Si 185.141 36.1577 1.62064 0
356 1 Si 190.724 36.3686 1.62709 0
357 1 Si 187.83 37.714 1.63302 0
358 1 Si 9.90265 4.60176 1.6463 0
359 1 Si 13.0898 3.86389 1.63163 0
360 1 Si 8.8688 7.68287 1.63574 0
361 1 Si 15.2422 6.25961 1.63255 0
362 1 Si 11.1437 9.95637 1.6407 0
363 1 Si 14.2245 9.25683 1.63835 0
364 1 Si 7.73566 2.20606 1.65038 0
365 1 Si 14.3821 0.867849 1.63432 0
366 1 Si 9.00253 176.694 1.6163 0
367 1 Si 12.1917 176 1.62944 0
368 1 Si 18.4481 6.0741 1.63086 0
369 1 Si 19.3529 3.08265 1.61889 0
370 1 Si 17.599 0.431422 1.61158 0
371 1 Si 195.782 35.1088 1.60926 0
372 1 Si 24.4939 4.91329 1.63183 0
373 1 Si 27.4354 3.98736 1.62564 0
374 1 Si 23.9726 8.05559 1.61846 0
375 1 Si 30.052 5.69024 1.64157 0
376 1 Si 29.9563 8.80765 1.62278 0
377 1 Si 26.7037 9.97884 1.64224 0
378 1 Si 22.4273 2.56735 1.62657 0
379 1 Si 28.1524 0.978161 1.61963 0
380 1 Si 22.9273 176.907 1.61773 0
381 1 Si 26.0159 176.152 1.65138 0
382 1 Si 20.7326 8.42369 1.64131 0
383 1 Si 32.5803 3.83512 1.64831 0
384 1 Si 31.2438 1.01515 1.64752 0
385 1 Si 106.98 39.9995 1.61088 0
386 1 Si 105.297 42.685 1.6293 0
387 1 Si 102.03 42.7252 1.63869 0
388 1 Si 99.9958 40.2208 1.63809 0
389 1 Si 35.7153 4.2814 1.62786 0
390 1 Si 36.3537 7.45169 1.61654 0
391 1 Si 33.386 9.38629 1.62195 0
392 1 Si 37.65 1.7329 1.61657 0
393 1 Si 33.1081 176.06 1.61611 0
394 1 Si 36.131 176.514 1.61493 0
395 1 Si 41.841 5.07404 1.64008 0
396 1 Si 39.7611 7.75436 1.64739 0
397 1 Si 42.8556 1.85347 1.62547 0
398 1 Si 40.3722 0.0248061 1.63653 0
399 1 Si 44.9167 5.49133 1.61932 0
400 1 Si 46.1667 8.38222 1.63603 0
401 1 Si 41.1782 10.8224 1.62331 0
402 1 Si 44.464 11.072 1.62571 0
403 1 Si 46.7576 2.91426 1.61599 0
404 1 Si 45.6372 177.397 1.6389 0
405 1 Si 122.688 38.5582 1.62835 0
406 1 Si 119.257 39.4572 1.6309 0
407 1 Si 49.2599 7.8995 1.63186 0
408 1 Si 49.3641 4.67003 1.6259 0
409 1 Si 129.258 38.6405 1.6218 0
410 1 Si 126.03 39.5151 1.62774 0
411 1 Si 54.1034 5.49975 1.62073 0
412 1 Si 52.0011 3.06168 1.61784 0
413 1 Si 54.1763 8.65735 1.62391 0
414 1 Si 51.432 10.2552 1.60724 0
415 1 Si 56.7663 3.9657 1.63402 0
416 1 Si 52.5127 177.32 1.63272 0
417 1 Si 55.6385 0.897893 1.62666 0
418 1 Si 136.041 40.7521 1.61162 0
419 1 Si 130.251 41.692 1.6198 0
420 1 Si 133.344 42.7515 1.62171 0
421 1 Si 65.1433 5.77037 1.63221 0
422 1 Si 62.1779 4.43728 1.6216 0
423 1 Si 59.867 9.0083 1.61076 0
424 1 Si 59.4197 5.84206 1.63511 0
425 1 Si 67.0176 8.41711 1.6225 0
426 1 Si 65.5853 11.3136 1.62041 0
427 1 Si 62.2721 11.1986 1.63411 0
428 1 Si 66.6994 3.0693 1.635 0
429 1 Si 61.2389 1.34232 1.6023 0
430 1 Si 64.3603 0.86416 1.63625 0
431 1 Si 56.9049 10.2116 1.62276 0
432 1 Si 72.0855 5.71593 1.62866 0
433 1 Si 70.3176 8.61362 1.61806 0
434 1 Si 69.9061 3.17235 1.62973 0
435 1 Si 145.017 37.2263 1.6382 0
436 1 Si 142.157 38.6281 1.64005 0
437 1 Si 75.5056 4.92934 1.63475 0
438 1 Si 78.0199 7.41357 1.64247 0
439 1 Si 76.7544 11.0528 1.61481 0
440 1 Si 70.8673 11.923 1.62303 0
441 1 Si 73.932 13.2237 1.6266 0
442 1 Si 76.2141 1.49634 1.61304 0
443 1 Si 73.6956 176.84 1.61515 0
444 1 Si 70.5466 0.0392223 1.6389 0
445 1 Si 81.7454 6.0946 1.65264 0
446 1 Si 82.893 2.7435 1.62383 0
447 1 Si 78.5465 176.476 1.62376 0
448 1 Si 81.7536 177.002 1.6229 0
449 1 Si 84.4624 8.26438 1.64031 0
450 1 Si 84.0005 11.3905 1.6204 0
451 1 Si 78.7091 13.7257 1.6126 0
452 1 Si 81.9148 13.7856 1.62465 0
453 1 Si 90.0022 6.12461 1.62393 0
454 1 Si 88.8285 3.03227 1.61619 0
455 1 Si 87.8842 8.56276 1.62582 0
456 1 Si 85.9771 1.64599 1.62959 0
457 1 Si 94.5428 3.67171 1.6102 0
458 1 Si 93.3033 6.67496 1.63846 0
459 1 Si 93.4973 0.656623 1.62966 0
460 1 Si 90.4456 0.183268 1.62081 0
461 1 Si 97.6373 2.87032 1.64091 0
462 1 Si 95.5223 9.27526 1.65796 0
463 1 Si 98.3412 177.213 1.60726 0
464 1 Si 95.5773 175.708 1.60994 0
465 1 Si 103.683 175.591 1.62767 0
466 1 Si 100.579 174.918 1.6301 0
467 1 Si 160.632 38.3813 1.6303 0
468 1 Si 163.904 39.3462 1.63781 0
469 1 Si 182.057 36.9335 1.63571 0
470 1 Si 176.86 37.9392 1.63447 0
471 1 Si 180.024 39.4167 1.63391 0
472 1 Si 10.6585 13.0863 1.62256 0
473 1 Si 16.3161 11.604 1.62081 0
474 1 Si 19.4465 11.3056 1.61607 0
475 1 Si 171.086 39.5806 1.62615 0
476 1 Si 174.44 40.1839 1.62908 0
477 1 Si 202.311 39.7626 1.63127 0
478 1 Si 193.706 37.5235 1.62678 0
479 1 Si 193.979 40.6554 1.63922 0
480 1 Si 197.142 41.6798 1.58425 0
481 1 Si 200.368 42.1841 1.63551 0
482 1 Si 3.67742 38.3517 1.59488 0
483 1 Si 2.05671 41.0528 1.59421 0
484 1 Si 5.83539 40.5687 1.61312 0
485 1 Si 8.60777 33.5818 1.63352 0
486 1 Si 9.54186 36.5449 1.62102 0
487 1 Si 8.62287 39.4874 1.62871 0
488 1 Si 67.9709 13.6545 1.61548 0
489 1 Si 89.4562 11.4648 1.63016 0
490 1 Si 86.7377 12.9293 1.60454 0
491 1 Si 119.46 42.676 1.62757 0
492 1 Si 122.077 44.6797 1.62097 0
493 1 Si 127.153 42.5191 1.61967 0
494 1 Si 125.321 45.1448 1.6431 0
495 1 Si 95.2442 12.6868 1.64243 0
496 1 Si 91.9913 13.4605 1.62236 0
497 1 Si 98.0414 14.887 1.60644 0
498 1 Si 15.6594 14.6953 1.63199 0
499 1 Si 12.6911 15.5234 1.61838 0
500 1 Si 25.948 13.178 1.61546 0
501 1 Si 20.3947 14.3214 1.62065 0
502 1 Si 23.3702 15.176 1.61881 0
503 1 Si 164.601 42.8514 1.61947 0
504 1 Si 169.997 42.818 1.62207 0
505 1 Si 167.376 44.8693 1.6371 0
506 1 Si 33.5601 12.6162 1.62825 0
507 1 Si 31.1699 14.8896 1.62233 0
508 1 Si 28.0426 15.5926 1.61904 0
509 1 Si 36.4497 14.0589 1.61755 0
510 1 Si 39.6295 13.7631 1.64127 0
511 1 Si 45.9482 13.9119 1.61342 0
512 1 Si 51.6763 13.4942 1.62351 0
513 1 Si 48.9542 15.0858 1.63898 0
514 1 Si 106.469 45.5813 1.62471 0
515 1 Si 104.29 47.7827 1.61275 0
516 1 Si 100.367 45.4738 1.61217 0
517 1 Si 101.295 48.4712 1.60239 0
518 1 Si 116.677 44.3322 1.62425 0
519 1 Si 113.494 43.9497 1.6094 0
520 1 Si 57.1122 13.3052 1.62143 0
521 1 Si 60.281 13.6788 1.62261 0
522 1 Si 120.753 47.5648 1.61335 0
523 1 Si 117.62 47.2829 1.62606 0
524 1 Si 74.1492 16.7384 1.60893 0
525 1 Si 77.3897 16.7693 1.6176 0
526 1 Si 86.6468 16.0226 1.60026 0
527 1 Si 83.5236 16.6401 1.63364 0
528 1 Si 89.8646 15.9414 1.62715 0
529 1 Si 162.157 45.1561 1.62765 0
530 1 Si 18.1438 16.5756 1.60883 0
531 1 Si 181.551 42.5363 1.63092 0
532 1 Si 187.498 40.8117 1.61024 0
533 1 Si 184.838 42.6689 1.63135 0
534 1 Si 32.5472 17.7005 1.61802 0
535 1 Si 35.5621 17.0682 1.61238 0
536 1 Si 175.251 43.4007 1.59993 0
537 1 Si 180.486 45.8219 1.61938 0
538 1 Si 177.257 46.0471 1.6376 0
539 1 Si 190.732 41.5788 1.62068 0
540 1 Si 40.9778 16.8422 1.63099 0
541 1 Si 44.1005 16.488 1.61847 0
542 1 Si 54.5154 15.0896 1.63304 0
543 1 Si 198.061 44.6879 1.60929 0
544 1 Si 201.146 45.2704 1.59115 0
545 1 Si 67.3069 16.9668 1.63435 0
546 1 Si 61.2725 16.5943 1.63416 0
547 1 Si 64.1584 17.8505 1.61479 0
548 1 Si 4.37113 43.2973 1.6248 0
549 1 Si 72.5767 19.9323 1.64177 0
550 1 Si 69.2811 19.6964 1.62832 0
551 1 Si 109.001 47.3978 1.64805 0
552 1 Si 112.114 47.1302 1.61869 0
553 1 Si 78.8824 19.6878 1.62491 0
554 1 Si 82.1926 19.592 1.62597 0
555 1 Si 126.707 48.1471 1.62414 0
556 1 Si 121.074 50.7134 1.62444 0
557 1 Si 126.135 51.3976 1.6135 0
558 1 Si 123.385 52.8741 1.62192 0
559 1 Si 134.364 45.8862 1.60592 0
560 1 Si 91.1536 18.7079 1.63951 0
561 1 Si 99.4749 18.0581 1.62553 0
562 1 Si 94.2294 19.3916 1.57446 0
563 1 Si 97.2793 20.3811 1.63073 0
564 1 Si 11.9515 18.5966 1.59168 0
565 1 Si 172.44 44.89 1.61087 0
566 1 Si 18.0527 19.7537 1.61538 0
567 1 Si 14.7836 20.4148 1.62403 0
568 1 Si 26.4761 18.4784 1.62752 0
569 1 Si 23.2992 18.4469 1.61725 0
570 1 Si 32.3601 20.8083 1.63161 0
571 1 Si 27.0162 21.6073 1.62155 0
572 1 Si 29.9315 22.656 1.62048 0
573 1 Si 190.04 44.6035 1.63444 0
574 1 Si 192.729 46.3094 1.61037 0
575 1 Si 186.823 45.1669 1.63281 0
576 1 Si 185.524 48.0456 1.62341 0
577 1 Si 191.393 49.1219 1.61423 0
578 1 Si 188.229 49.7789 1.63253 0
579 1 Si 195.868 46.7935 1.61744 0
580 1 Si 36.8951 19.8929 1.63576 0
581 1 Si 39.9722 20.0816 1.62981 0
582 1 Si 46.0364 18.888 1.63208 0
583 1 Si 49.1093 18.2305 1.61601 0
584 1 Si 108.203 50.3775 1.57368 0
585 1 Si 104.982 50.6977 1.63643 0
586 1 Si 113.031 50.4666 1.62808 0
587 1 Si 116.137 50.0303 1.62375 0
588 1 Si 55.5809 18.0605 1.63336 0
589 1 Si 58.6957 18.4295 1.62935 0
590 1 Si 77.1918 22.5799 1.63186 0
591 1 Si 73.9432 23.2628 1.62608 0
592 1 Si 129.63 49.2307 1.61135 0
593 1 Si 132.687 48.5979 1.63267 0
594 1 Si 83.8807 22.4076 1.63366 0
595 1 Si 89.6155 21.4074 1.59559 0
596 1 Si 87.0441 23.2099 1.63676 0
597 1 Si 162.534 48.5318 1.63282 0
598 1 Si 159.64 50.0609 1.63312 0
599 1 Si 167.783 48.523 1.63688 0
600 1 Si 165.237 50.736 1.62164 0
601 1 Si 21.1157 20.957 1.6427 0
602 1 Si 182.288 48.7989 1.62059 0
603 1 Si 35.0496 22.4122 1.62347 0
604 1 Si 40.4007 23.482 1.62389 0
605 1 Si 45.6035 21.8997 1.60938 0
606 1 Si 43.466 24.1644 1.63662 0
607 1 Si 202.506 48.1592 1.63939 0
608 1 Si 197.195 49.6834 1.61071 0
609 1 Si 200.289 50.6137 1.63741 0
610 1 Si 2.54189 48.5102 1.60318 0
611 1 Si 5.14267 46.4438 1.6228 0
612 1 Si 50.9681 20.7753 1.6465 0
613 1 Si 54.1463 20.8988 1.62147 0
614 1 Si 107.242 53.6011 1.66692 0
615 1 Si 112.227 53.8244 1.64215 0
616 1 Si 109.448 55.6561 1.61723 0
617 1 Si 62.5877 20.6625 1.63411 0
618 1 Si 59.5058 21.4237 1.58975 0
619 1 Si 67.7057 22.5182 1.6223 0
620 1 Si 64.6075 22.929 1.60741 0
621 1 Si 118.315 52.2996 1.60673 0
622 1 Si 82.0483 25.0771 1.61347 0
623 1 Si 78.872 25.3025 1.64344 0
624 1 Si 130.26 52.2872 1.59829 0
625 1 Si 127.939 54.227 1.63638 0
626 1 Si 133.237 51.6774 1.61814 0
627 1 Si 135.667 53.5265 1.64142 0
628 1 Si 92.6704 22.1222 1.60439 0
629 1 Si 97.6021 23.6547 1.612 0
630 1 Si 94.5044 24.6734 1.60552 0
631 1 Si 172.826 48.0253 1.61618 0
632 1 Si 170.677 50.3727 1.60798 0
633 1 Si 14.6363 23.5355 1.63774 0
634 1 Si 11.927 25.1277 1.59895 0
635 1 Si 175.844 49.0523 1.60356 0
636 1 Si 25.2624 24.3122 1.63244 0
637 1 Si 22.0426 24.1638 1.62574 0
638 1 Si 194.185 50.695 1.62904 0
639 1 Si 187.48 52.8313 1.64414 0
640 1 Si 193.358 53.6315 1.62564 0
641 1 Si 190.269 54.343 1.61626 0
642 1 Si 30.1983 25.7664 1.62294 0
643 1 Si 27.2401 26.8469 1.63908 0
644 1 Si 35.4851 25.5116 1.62595 0
645 1 Si 38.5598 26.3225 1.62024 0
646 1 Si 104.191 53.6357 1.60161 0
647 1 Si 48.6035 22.8561 1.6129 0
648 1 Si 117.54 55.364 1.62939 0
649 1 Si 114.405 56.275 1.62792 0
650 1 Si 56.6756 22.9041 1.63241 0
651 1 Si 67.9236 25.6888 1.60642 0
652 1 Si 73.0349 27.1151 1.63298 0
653 1 Si 69.894 28.2504 1.62988 0
654 1 Si 148.015 52.4169 1.60745 0
655 1 Si 87.832 26.2917 1.59345 0
656 1 Si 82.6512 28.2335 1.62988 0
657 1 Si 85.7051 28.5961 1.59587 0
658 1 Si 160.237 53.2708 1.61747 0
659 1 Si 154.607 53.3722 1.62367 0
660 1 Si 157.446 54.6667 1.64324 0
661 1 Si 165.437 54.5722 1.63809 0
662 1 Si 162.362 55.8175 1.62905 0
663 1 Si 16.7724 25.8976 1.62595 0
664 1 Si 14.0365 27.5302 1.61565 0
665 1 Si 181.668 52.2269 1.63838 0
666 1 Si 184.478 54.0072 1.62943 0
667 1 Si 19.9443 26.7815 1.64037 0
668 1 Si 175.903 52.3974 1.6301 0
669 1 Si 178.842 54.2219 1.63497 0
670 1 Si 32.8848 27.3683 1.6319 0
671 1 Si 201.094 53.7766 1.6309 0
672 1 Si 195.596 55.8244 1.61391 0
673 1 Si 198.756 56.1198 1.63226 0
674 1 Si 48.2061 25.922 1.62206 0
675 1 Si 45.1264 26.861 1.61639 0
676 1 Si 1.20632 54.2159 1.63597 0
677 1 Si 3.3877 51.6338 1.60494 0
678 1 Si 56.8043 26.0705 1.62838 0
679 1 Si 50.8133 27.6573 1.63896 0
680 1 Si 53.9524 27.5506 1.61346 0
681 1 Si 123.091 56.1474 1.62959 0
682 1 Si 120.074 57.3148 1.64024 0
683 1 Si 64.7827 25.9801 1.61349 0
684 1 Si 59.4266 28.1086 1.61673 0
685 1 Si 62.7376 28.3268 1.63059 0
686 1 Si 138.536 56.7456 1.62651 0
687 1 Si 135.435 56.7402 1.60817 0
688 1 Si 77.8145 28.3425 1.60052 0
689 1 Si 75.043 29.9895 1.60745 0
690 1 Si 149.147 55.3587 1.63047 0
691 1 Si 152.242 55.3395 1.63741 0
692 1 Si 93.3896 27.7567 1.62646 0
693 1 Si 90.2527 28.3305 1.62125 0
694 1 Si 143.346 57.7565 1.61287 0
695 1 Si 140.516 59.133 1.62374 0
696 1 Si 172.584 53.2477 1.62824 0
697 1 Si 168.034 57.2096 1.61323 0
698 1 Si 171.416 56.496 1.61503 0
699 1 Si 95.5601 30.2111 1.60855 0
700 1 Si 13.517 30.7239 1.63018 0
701 1 Si 10.2783 30.8843 1.61575 0
702 1 Si 190.523 57.4706 1.63837 0
703 1 Si 184.842 57.1917 1.63469 0
704 1 Si 187.655 58.8101 1.61927 0
705 1 Si 193.608 58.3014 1.60946 0
706 1 Si 27.0154 30.0559 1.63042 0
707 1 Si 20.8734 30.0312 1.62671 0
708 1 Si 23.9759 31.2404 1.61121 0
709 1 Si 107.684 58.4841 1.61804 0
710 1 Si 104.258 59.3613 1.62503 0
711 1 Si 101.338 57.3607 1.62196 0
712 1 Si 101.152 54.0769 1.63867 0
713 1 Si 32.8437 30.5624 1.6545 0
714 1 Si 29.807 31.9304 1.62901 0
715 1 Si 38.6273 29.6102 1.62577 0
716 1 Si 35.9971 31.5592 1.61617 0
717 1 Si 113.617 59.5014 1.63972 0
718 1 Si 110.406 60.4262 1.6217 0
719 1 Si 44.1837 29.9232 1.6413 0
720 1 Si 41.3329 31.4178 1.61713 0
721 1 Si 49.5641 30.5097 1.62298 0
722 1 Si 46.7195 31.7317 1.627 0
723 1 Si 128.453 57.4782 1.62085 0
724 1 Si 125.37 58.489 1.62207 0
725 1 Si 54.8818 30.5328 1.61655 0
726 1 Si 57.9146 30.9544 1.62495 0
727 1 Si 119.282 60.4009 1.61868 0
728 1 Si 116.244 61.5581 1.63879 0
729 1 Si 134.198 59.7143 1.63578 0
730 1 Si 130.897 59.7545 1.64753 0
731 1 Si 64.7834 30.8711 1.63751 0
732 1 Si 68.1133 31.1629 1.62881 0
733 1 Si 148.112 58.3285 1.63968 0
734 1 Si 145.51 60.0468 1.61879 0
735 1 Si 157.993 57.7243 1.62454 0
736 1 Si 152.976 58.2527 1.64078 0
737 1 Si 155.633 59.6436 1.63607 0
738 1 Si 80.2651 30.3695 1.59928 0
739 1 Si 160.887 58.8757 1.59931 0
740 1 Si 88.0652 30.5626 1.61768 0
741 1 Si 179.212 57.7869 1.63078 0
742 1 Si 182.317 59.1263 1.62457 0
743 1 Si 18.9693 32.7787 1.61698 0
744 1 Si 15.7113 33.3211 1.63689 0
745 1 Si 1.82166 57.4427 1.62225 0
746 1 Si 198.757 59.3881 1.5914 0
747 1 Si 202.146 59.3263 1.61949 0
748 1 Si 23.9839 34.5011 1.62562 0
749 1 Si 20.9119 35.4599 1.62396 0
750 1 Si 5.01435 58.4775 1.6217 0
751 1 Si 6.61129 50.8527 1.62006 0
752 1 Si 8.35425 53.4297 1.63152 0
753 1 Si 7.60875 56.5053 1.6329 0
754 1 Si 195.6 60.7948 1.63027 0
755 1 Si 124.586 61.7042 1.63421 0
756 1 Si 121.499 62.7368 1.61912 0
757 1 Si 53.6137 33.3967 1.62881 0
758 1 Si 50.5977 33.3985 1.61592 0
759 1 Si 139.642 62.1891 1.63147 0
760 1 Si 136.335 62.3676 1.63358 0
761 1 Si 57.5532 34.2126 1.6267 0
762 1 Si 63.051 33.555 1.59744 0
763 1 Si 60.4253 35.3853 1.63193 0
764 1 Si 150.579 60.1119 1.64348 0
765 1 Si 168.09 60.7588 1.62036 0
766 1 Si 159.85 62.1188 1.63917 0
767 1 Si 165.744 63.2919 1.62168 0
768 1 Si 162.46 63.9305 1.61649 0
769 1 Si 75.8801 33.4492 1.62249 0
770 1 Si 79.2622 33.4416 1.62841 0
771 1 Si 173.44 59.4067 1.62161 0
772 1 Si 171.307 62.0085 1.62235 0
773 1 Si 96.3093 33.4268 1.62592 0
774 1 Si 87.7779 33.6023 1.63948 0
775 1 Si 90.875 34.5978 1.57913 0
776 1 Si 93.9678 35.5588 1.63399 0
777 1 Si 176.916 60.3705 1.64642 0
778 1 Si 187.27 61.9999 1.63057 0
779 1 Si 193.775 63.6157 1.61493 0
780 1 Si 190.25 63.8336 1.62016 0
781 1 Si 15.1476 36.668 1.61175 0
782 1 Si 12.3003 37.992 1.6125 0
783 1 Si 103.686 62.7115 1.62457 0
784 1 Si 100.6 64.0776 1.63463 0
785 1 Si 98.1946 58.4434 1.61693 0
786 1 Si 98.2453 61.771 1.60821 0
787 1 Si 109.587 63.4941 1.61224 0
788 1 Si 106.474 64.3596 1.58708 0
789 1 Si 116.652 64.8361 1.61643 0
790 1 Si 111.307 66.2339 1.61771 0
791 1 Si 114.431 67.2965 1.62866 0
792 1 Si 29.5471 35.2236 1.6392 0
793 1 Si 26.4982 36.5936 1.62566 0
794 1 Si 126.951 63.9017 1.62884 0
795 1 Si 130.002 62.8382 1.62731 0
796 1 Si 37.4727 34.4794 1.62404 0
797 1 Si 32.2049 37.1946 1.62213 0
798 1 Si 35.5485 37.0424 1.61775 0
799 1 Si 145.252 63.3204 1.63233 0
800 1 Si 141.998 64.5602 1.61955 0
801 1 Si 40.8226 34.6508 1.62474 0
802 1 Si 47.8078 34.6669 1.64086 0
803 1 Si 46.7092 37.6121 1.63565 0
804 1 Si 43.057 37.3203 1.61947 0
805 1 Si 151.213 63.0785 1.6338 0
806 1 Si 148.368 64.6838 1.6365 0
807 1 Si 54.9212 36.2362 1.62024 0
808 1 Si 154.362 62.4988 1.63934 0
809 1 Si 157.021 64.1109 1.62877 0
810 1 Si 68.4821 34.5041 1.63415 0
811 1 Si 65.4298 35.6142 1.6121 0
812 1 Si 74.2284 36.6219 1.62666 0
813 1 Si 70.7383 37.0446 1.62484 0
814 1 Si 84.8264 34.9119 1.60335 0
815 1 Si 81.7033 35.6412 1.63856 0
816 1 Si 183.834 62.1102 1.62332 0
817 1 Si 89.5858 37.4186 1.63346 0
818 1 Si 86.505 37.5283 1.63417 0
819 1 Si 178.242 63.8259 1.6335 0
820 1 Si 181.766 64.7191 1.64661 0
821 1 Si 202.544 62.3979 1.63627 0
822 1 Si 2.38527 63.2194 1.61816 0
823 1 Si 201.017 65.1399 1.59999 0
824 1 Si 0.875334 65.9712 1.60821 0
825 1 Si 108.244 66.9439 1.63118 0
826 1 Si 106.837 69.606 1.62989 0
827 1 Si 103.965 70.7001 1.62495 0
828 1 Si 100.901 70.1562 1.62369 0
829 1 Si 99.4485 67.2647 1.61347 0
830 1 Si 5.21645 61.7411 1.62955 0
831 1 Si 119.888 65.5897 1.62497 0
832 1 Si 20.2773 38.684 1.63758 0
833 1 Si 17.0761 39.3831 1.62638 0
834 1 Si 121.14 68.6841 1.62887 0
835 1 Si 126.898 67.1433 1.63163 0
836 1 Si 124.451 69.3511 1.62402 0
837 1 Si 135.208 65.4447 1.62864 0
838 1 Si 131.974 65.353 1.64837 0
839 1 Si 140.506 67.7101 1.62318 0
840 1 Si 136.996 68.2945 1.61663 0
841 1 Si 60.7982 38.5451 1.61491 0
842 1 Si 64.0059 38.4304 1.629 0
843 1 Si 172.398 65.3987 1.65197 0
844 1 Si 166.693 66.4433 1.62585 0
845 1 Si 169.771 67.6952 1.63495 0
846 1 Si 81.8895 38.9276 1.62941 0
847 1 Si 75.8906 39.7104 1.60837 0
848 1 Si 79.2702 40.8195 1.62188 0
849 1 Si 175.91 66.4621 1.63671 0
850 1 Si 94.5641 38.7508 1.61799 0
851 1 Si 91.5894 39.7916 1.63319 0
852 1 Si 195.569 66.5481 1.60938 0
853 1 Si 198.888 67.5454 1.63644 0
854 1 Si 25.8807 39.9077 1.63158 0
855 1 Si 22.686 41.0211 1.63368 0
856 1 Si 189.993 67.0747 1.61328 0
857 1 Si 193.029 68.6448 1.61608 0
858 1 Si 0.757399 69.1455 1.61707 0
859 1 Si 3.82871 70.0644 1.63542 0
860 1 Si 5.81878 66.9789 1.63883 0