LAMMPS data file via write_data, version 23 Jun 2022, timestep = 7929

15672 atoms
2 atom types

4.630997542210511 201.22616883287333 xlo xhi
5.26232601801077 171.93509452030918 ylo yhi
-100 100 zlo zhi

Masses

1 28.085
2 15.999

Atoms # full

9454 1 2 0 5.161384319482532 7.495696617058275 -2.1202390183487645 0 0 0
6728 1 1 0 9.35912068491534 7.33394008795154 -1.6263330309846027 0 0 0
9482 1 2 0 9.94237155303754 5.810446998848731 -1.9159971096594413 0 0 0
9717 1 2 0 12.551420148217177 5.546511960462651 -2.106455938593011 0 0 0
6889 1 1 0 13.873060321422205 6.444197502251515 -1.647620235029386 0 0 0
9718 1 2 0 15.283842269088746 5.787304829744666 -2.1429483910005827 0 0 0
6892 1 1 0 16.801573671365777 5.432191764591012 -1.6528245664900236 0 0 0
9720 1 2 0 17.863138967541882 6.624466329371744 -2.1379286102489816 0 0 0
6891 1 1 0 19.04767885295586 7.6736271104249845 -1.604562278764551 0 0 0
9722 1 2 0 20.445085763691385 6.875636463746025 -1.9122092795518577 0 0 0
6896 1 1 0 21.266636928504685 5.509640083944137 -1.5960223970749507 0 0 0
9730 1 2 0 22.861704832437297 5.472651454678778 -1.9252842524357336 0 0 0
6900 1 1 0 24.275635741864143 6.217326415531384 -1.603493229780211 0 0 0
9734 1 2 0 23.871971356212875 7.703968071717138 -2.138332392240045 0 0 0
9736 1 2 0 25.633253829452723 5.470098758883413 -2.136021574292062 0 0 0
9742 1 2 0 30.47088360187746 6.569967223905544 -2.1456996584624095 0 0 0
9754 1 2 0 37.26756719483094 6.717109604717885 -2.1557819722123157 0 0 0
9787 1 2 0 42.1739879775421 5.72302728329194 -2.0934466342179157 0 0 0
6929 1 1 0 43.518017597885176 6.595477213415261 -1.6348057700249572 0 0 0
9783 1 2 0 45.02195797441586 6.042976113632803 -2.1321052727663403 0 0 0
6927 1 1 0 46.59108799794552 5.766015498494102 -1.6204772894095207 0 0 0
9780 1 2 0 47.55292203989841 7.0530471344971435 -1.9357764041401384 0 0 0
9782 1 2 0 50.2768296239715 6.866866013723415 -2.0497084466343938 0 0 0
6933 1 1 0 51.83113983449712 6.525072986717735 -1.6139843662132987 0 0 0
9793 1 2 0 52.78598801118692 5.286331104930856 -2.138170937738952 0 1 0
6947 1 1 0 58.77906113585858 7.506589417966984 -1.6161419532720906 0 0 0
9817 1 2 0 58.914862255304016 6.045608301661834 -2.227657427082161 0 0 0
9821 1 2 0 66.22176000132815 5.405519660008451 -2.1537799457126274 0 0 0
6949 1 1 0 67.40034965965549 6.437420858352422 -1.6545825099100229 0 0 0
9822 1 2 0 68.96604216582395 6.492863419092055 -2.1610429935926603 0 0 0
6958 1 1 0 70.51507031207834 6.610439194937145 -1.5931581968025508 0 0 0
9835 1 2 0 71.7538920647676 7.595652924303828 -2.078702203655913 0 0 0
9844 1 2 0 74.37819569611885 7.074632377636856 -2.1652408054696437 0 0 0
6978 1 1 0 75.46400201251774 5.995458907739702 -1.651307622234926 0 0 0
9861 1 2 0 77.00591342822487 6.329828573177864 -2.078686376808392 0 0 0
6972 1 1 0 78.52309356293463 5.889462579633007 -1.592075219460797 0 0 0
9859 1 2 0 80.0621853541636 5.958806172903543 -2.157747023624866 0 0 0
6973 1 1 0 81.61899170716329 5.744484577294117 -1.664904730881905 0 0 0
9863 1 2 0 82.63744059005057 6.914427296587714 -2.1655435472615503 0 0 0
9869 1 2 0 85.25454146057203 7.655066592392164 -2.0380330096200576 0 0 0
6982 1 1 0 86.83497794783494 7.026184204179511 -1.6194081794222404 0 0 0
9876 1 2 0 87.53288711816604 5.444623193257524 -2.012334691384182 0 0 0
9890 1 2 0 92.60417743713366 5.54443777557955 -2.1024006457403703 0 0 0
6991 1 1 0 93.20278111310365 7.031285514065759 -1.6007590184864815 0 0 0
9891 1 2 0 94.65026272954168 7.637442530271593 -2.126006388397761 0 0 0
9897 1 2 0 97.15401345665072 7.082803147290946 -2.1507786770654143 0 0 0
6996 1 1 0 98.32775724400425 6.096575251762688 -1.6491526707373665 0 0 0
9463 1 2 0 99.69150976941518 6.874282822423911 -2.1456826838157816 0 0 0
6716 1 1 0 101.13266488190672 7.496943136801291 -1.5850663392581092 0 0 0
9462 1 2 0 101.59760681594744 6.012767842550211 -2.0947009924723554 0 0 0
6711 1 1 0 6.416430214556344 8.416129148807093 -1.641566080460389 0 0 0
9452 1 2 0 6.054054743163136 9.950419849080804 -2.1119829376933716 0 0 0
9455 1 2 0 7.847036380609959 7.760712167768549 -2.148499536221856 0 0 0
9480 1 2 0 10.369588842785534 8.530034744316271 -2.1327305261559606 0 0 0
6727 1 1 0 11.124217573125003 9.884090881780287 -1.5990414376266204 0 0 0
6730 1 1 0 14.230421042448167 9.56515551090475 -1.5988078126722016 0 0 0
9486 1 2 0 14.10963487318565 8.007560870111682 -2.142387531185674 0 0 0
9481 1 2 0 12.704462448354832 10.011727718672626 -1.9466012513228304 0 0 0
9721 1 2 0 19.378851156849326 9.259058087106725 -2.0011210912784096 0 0 0
9725 1 2 0 21.848517534074315 9.660935635506991 -2.0492051932096382 0 0 0
6899 1 1 0 23.329846814646604 9.148551190925044 -1.618196171478374 0 0 0
6905 1 1 0 28.585554436817326 10.159601674929077 -1.5990683582190002 0 0 0
9741 1 2 0 29.684911389553726 9.070914987316943 -2.1465396268648895 0 0 0
6903 1 1 0 30.905658040553686 8.075976467496652 -1.659356536244627 0 0 0
9740 1 2 0 32.43022047821628 8.50748170946635 -2.1448061255825257 0 0 0
6904 1 1 0 33.86698094941317 9.159709468191972 -1.6381811194470133 0 0 0
9744 1 2 0 35.298611343207895 8.464955661019573 -2.0458359584518693 0 0 0
6910 1 1 0 36.86807871518475 8.206121665064419 -1.6339771656628586 0 0 0
9755 1 2 0 38.05194880756236 9.236338529385693 -2.141116488224303 0 0 0
6923 1 1 0 39.378491152716826 10.071511999027592 -1.621482989867016 0 0 0
9776 1 2 0 40.882962782469086 9.541829710097717 -2.027655565567918 0 0 0
6928 1 1 0 42.47904199489533 9.583348069244527 -1.6237738929204713 0 0 0
9785 1 2 0 43.2495167189682 8.180013958216847 -2.029579853685681 0 0 0
9781 1 2 0 48.96940208014829 9.337841600334295 -2.1563714331180455 0 0 0
6926 1 1 0 48.97806243082187 7.783319878625341 -1.6141358381503175 0 0 0
9794 1 2 0 52.58350489635642 7.879244063906792 -2.0913339932146995 0 0 0
6941 1 1 0 53.37108971960495 9.206538677193489 -1.635067019844476 0 0 0
9806 1 2 0 54.87682033601021 9.21503835366981 -2.207223185200415 0 0 0
6953 1 1 0 56.35819857160558 9.259211042316217 -1.6071045675900604 0 0 0
9818 1 2 0 57.37626218743745 8.111498527023947 -2.064747836305137 0 0 0
9809 1 2 0 60.201833220976 8.035608053840493 -2.1389457898962574 0 0 0
9808 1 2 0 60.24300130866596 10.029094935620307 -1.983282114416589 0 0 0
6942 1 1 0 61.40207227546261 8.945930820035912 -1.5692834483905755 0 0 0
9807 1 2 0 62.875761529130074 9.255832368921686 -2.118619842861061 0 0 0
6943 1 1 0 64.12093207702591 10.143968287667903 -1.6085226672912263 0 0 0
9811 1 2 0 65.60579020942322 9.913096596679644 -2.166256708807901 0 0 0
6948 1 1 0 67.04589483741988 9.449454020314697 -1.6160804780413462 0 0 0
9819 1 2 0 67.15501792008612 7.946930870033094 -2.182193841283542 0 0 0
6963 1 1 0 73.2616068550032 8.133938300830524 -1.6470986118656243 0 0 0
9841 1 2 0 74.00435924254114 9.522803155915721 -2.155561005504814 0 0 0
9848 1 2 0 82.42090717881014 9.314484165493626 -2.0074439793384804 0 0 0
6977 1 1 0 83.62108287377568 8.118659211977352 -1.6316851719594003 0 0 0
9873 1 2 0 87.93537126700002 8.266352667525913 -1.9538092387937525 0 0 0
6980 1 1 0 88.67872560373618 9.736262260153941 -1.6160540930033196 0 0 0
9874 1 2 0 90.26893349178533 9.939771226344687 -2.079004539408548 0 0 0
6985 1 1 0 91.86987752639654 9.931300862478315 -1.6066100360611133 0 0 0
9880 1 2 0 92.2587333406184 8.34961102840629 -1.8994875022728266 0 0 0
6995 1 1 0 96.11788796573529 8.209344991841947 -1.6410230609137193 0 0 0
9895 1 2 0 96.80011831437238 9.632289941602828 -2.1223037896006685 0 0 0
9300 1 2 0 102.58723297196674 8.09950857055189 -2.1000160056962995 0 0 0
6710 1 1 0 5.521106837288561 11.427281171568714 -1.622044333753812 0 0 0
9453 1 2 0 6.622033054145252 12.533846832234854 -2.066423501719298 0 0 0
9478 1 2 0 10.550202182332912 11.330755060165025 -2.068032370115912 0 0 0
9485 1 2 0 15.218366148972398 10.823515277580059 -2.046372237096087 0 0 0
6731 1 1 0 15.550985641999599 12.386079665826987 -1.5892601532659947 0 0 0
6893 1 1 0 20.479041914099575 10.456974681313437 -1.6213339957598645 0 0 0
9724 1 2 0 20.555636488744614 12.041754580620983 -2.146497819531804 0 0 0
6914 1 1 0 25.643756229381943 11.118649666144035 -1.6535101744628566 0 0 0
9735 1 2 0 24.442256913399184 10.175745754589455 -2.165122019784141 0 0 0
9761 1 2 0 25.13826907589147 12.585887375407093 -2.1729035180389262 0 0 0
9746 1 2 0 27.0538318655904 10.434383501378367 -2.1239949698972596 0 0 0
9745 1 2 0 29.13674374817753 11.624499796721627 -2.014882826389472 0 0 0
9743 1 2 0 34.06461919446699 10.696480954720533 -2.1610856355533796 0 0 0
6906 1 1 0 34.258311810110534 12.215704666040727 -1.6087458774887595 0 0 0
9775 1 2 0 39.24051946381582 11.63128671236006 -2.0819064972300576 0 0 0
9786 1 2 0 43.16676066452566 10.996541717564662 -2.1510152744933837 0 0 0
6931 1 1 0 43.82576586298875 12.41310018913721 -1.6147393937953844 0 0 0
9788 1 2 0 47.83435817001287 11.933888728124131 -2.1595210894426002 0 0 0
6930 1 1 0 48.956876239109945 10.884279182057698 -1.6106282184504597 0 0 0
9789 1 2 0 50.33761605048629 11.65467711971905 -1.945250586511424 0 0 0
6940 1 1 0 51.89512376145241 11.856232003471996 -1.5920404588780084 0 0 0
9804 1 2 0 52.688973456009975 10.572416500676585 -2.1482455455412954 0 0 0
9813 1 2 0 57.410520655346765 10.435329298124973 -1.9815167867087637 0 0 0
6944 1 1 0 58.90945885040303 10.880372917471457 -1.5756702686143216 0 0 0
9812 1 2 0 59.699733817611026 12.13725969608343 -2.204657863723236 0 0 0
9810 1 2 0 63.63195743836667 11.622187789519751 -1.9762864507787932 0 0 0
9820 1 2 0 68.26275687502118 10.44691573175964 -1.9655936456057692 0 0 0
6956 1 1 0 68.9213261381779 11.885737655204437 -1.6145101430836255 0 0 0
9832 1 2 0 70.4866475373784 11.876710084623499 -2.1218378310023587 0 0 0
6964 1 1 0 72.00383054366988 12.290656446546805 -1.6007749002863367 0 0 0
9842 1 2 0 73.5291801383609 11.809282269918187 -2.037805247155287 0 0 0
6962 1 1 0 74.84359895407756 10.864426677981607 -1.6253706320033419 0 0 0
9843 1 2 0 76.45854335388236 11.189225055874909 -2.0771708026606057 0 0 0
6966 1 1 0 78.02625184853945 11.779129081188584 -1.6447802288033906 0 0 0
9846 1 2 0 79.57746738475873 11.051673725073963 -2.06002936248308 0 0 0
6965 1 1 0 81.20949266251581 10.523008066809693 -1.6201630264355373 0 0 0
9847 1 2 0 82.54250662486562 11.418189801123933 -2.0972580678920565 0 0 0
9851 1 2 0 85.4547311858469 12.1336361370552 -2.0250768493310933 0 0 0
6967 1 1 0 83.85526567447282 12.299809218809337 -1.626014996392652 0 0 0
9872 1 2 0 87.87044105311281 11.090836275651435 -2.1323883675209805 0 0 0
6981 1 1 0 87.04424978557677 12.438564904298724 -1.635461401589827 0 0 0
9879 1 2 0 92.9785896593092 11.108017920002805 -2.1094590396088306 0 0 0
6986 1 1 0 94.19105302913006 12.165245133221765 -1.593547744217865 0 0 0
9882 1 2 0 95.71891602395786 11.697297473713832 -1.9944994831926262 0 0 0
6994 1 1 0 97.2139743157464 11.150317930338048 -1.5986246838678249 0 0 0
9896 1 2 0 98.47875043108816 12.104643454485066 -2.1260533742653305 0 0 0
6723 1 1 0 7.574470876248427 13.762543730084495 -1.6252021502475986 0 0 0
9474 1 2 0 9.06518300215182 13.471253060281162 -2.168871939055508 0 0 0
6726 1 1 0 10.472668834310381 12.896279016264781 -1.6381505903200138 0 0 0
9479 1 2 0 11.712535756197727 13.819448186017713 -2.1289733308484053 0 0 0
6729 1 1 0 13.147768693390523 14.366926168775104 -1.607551767736432 0 0 0
9483 1 2 0 14.153671136032452 13.142614620161979 -1.924106141506858 0 0 0
9487 1 2 0 16.565477023049567 13.564849842174873 -2.1456083299133715 0 0 0
9726 1 2 0 18.983990335994186 14.179228238563729 -2.170631638567645 0 0 0
6895 1 1 0 17.570706893580528 14.778409046285567 -1.6561972953130033 0 0 0
6894 1 1 0 20.418846804446435 13.62895214656678 -1.651885223542423 0 0 0
9727 1 2 0 21.297131342236238 14.959580223310365 -2.124458322845315 0 0 0
9904 1 2 0 23.294723835524774 14.88610005901649 -2.0634853556276567 0 0 0
7001 1 1 0 24.54686333307121 13.985534236348578 -1.5805263866624124 0 0 0
9750 1 2 0 28.095741559328104 14.233047786989054 -2.177000217650943 0 0 0
6907 1 1 0 29.19468327724489 13.183281231891495 -1.6258598101965014 0 0 0
9749 1 2 0 30.579794569643827 13.761850713764414 -2.183213967823866 0 0 0
6908 1 1 0 31.991761084171493 14.271867911994528 -1.627647359473165 0 0 0
9747 1 2 0 33.03438489864972 13.142323348544974 -2.0906043972329984 0 0 0
9748 1 2 0 35.5196336999826 13.138364977400693 -2.0427792181177504 0 0 0
6924 1 1 0 36.409685505182814 14.44070891473242 -1.633508871275305 0 0 0
9777 1 2 0 37.87524348551665 13.977675940528567 -2.1569505012828523 0 0 0
6925 1 1 0 39.19509611092837 13.193394073306013 -1.6280556215790478 0 0 0
9779 1 2 0 40.477596061518774 14.041827175423357 -2.13112607187237 0 0 0
7009 1 1 0 41.803162145742604 14.812387155099952 -1.6089764889079492 0 0 0
9791 1 2 0 43.032104222707744 13.801802952204824 -1.9627986077513029 0 0 0
9790 1 2 0 45.341918963476395 12.705083944023679 -2.138666358055156 0 0 0
6932 1 1 0 46.835237792418084 13.11508316952281 -1.634896276935938 0 0 0
9792 1 2 0 47.27037055535388 14.629820259015492 -2.072760064859297 0 0 0
9805 1 2 0 52.37891413043435 13.285828662507031 -2.1490760228481034 0 0 0
7014 1 1 0 52.692279391792795 14.781913941742806 -1.6387147645335212 0 0 0
9816 1 2 0 59.630660483030844 14.43061702339797 -2.2129509054286185 0 0 0
6946 1 1 0 60.638499850079235 13.330960578297674 -1.6580445806090771 0 0 0
9814 1 2 0 62.15735867130629 13.52862141812897 -2.139998728711958 0 0 0
6945 1 1 0 63.63378307213571 13.181871617061226 -1.5872864053334408 0 0 0
9815 1 2 0 65.07573788038155 13.609001846736378 -2.1747824430012024 0 0 0
6957 1 1 0 66.58089245555256 13.926585469429067 -1.6490290796972233 0 0 0
9831 1 2 0 67.8420684164427 13.0100072497882 -2.135145469859106 0 0 0
9845 1 2 0 71.84378590454081 13.83414221057079 -2.0720069381705892 0 0 0
9849 1 2 0 77.92337952491425 13.413781328225175 -2.055353843117223 0 0 0
6968 1 1 0 77.42991397674179 14.950035837118188 -1.5944363792399616 0 0 0
9850 1 2 0 83.39818176587144 13.755241412014264 -2.1715080972406944 0 0 0
9875 1 2 0 87.71426395839907 13.895994931619917 -2.1320018218130694 0 0 0
9881 1 2 0 94.69669861254637 13.685001104211247 -2.109185225470129 0 0 0
6997 1 1 0 99.66585083810197 13.169240650953576 -1.6166717812383424 0 0 0
9899 1 2 0 99.35634513569354 14.76479977812982 -1.904350762731833 0 0 0
6715 1 1 0 102.81116848063377 13.077631493269873 -1.6156141840895517 0 0 0
9461 1 2 0 101.23630100382617 12.962840866508525 -2.126251526345568 0 0 0
6725 1 1 0 6.9602712975528105 16.748594164242316 -1.631400779442559 0 0 0
9475 1 2 0 5.485802209711344 17.272992764572766 -2.1208006502295245 0 0 0
9473 1 2 0 7.115099584769921 15.2197916460361 -2.152620947774249 0 0 0
9484 1 2 0 13.666076250456412 15.802583307355462 -2.1719092054195044 0 0 0
6775 1 1 0 14.005231149506693 17.28957165483541 -1.5971921945727343 0 0 0
9728 1 2 0 17.43019717589498 16.351128070677404 -2.147085897625271 0 0 0
7002 1 1 0 22.353453261578288 16.157377827386387 -1.5909229770615012 0 0 0
9905 1 2 0 25.673513136062734 15.087564217801383 -1.8991581864571814 0 0 0
7006 1 1 0 27.197097446234057 15.440958949822509 -1.5850227130230172 0 0 0
9911 1 2 0 27.544412699192986 16.966844653340136 -1.9485395579486398 0 0 0
9751 1 2 0 32.249749099815375 15.773436338617186 -2.153792861047113 0 0 0
7007 1 1 0 32.34270507234848 17.291071312091262 -1.6007311880660517 0 0 0
7008 1 1 0 35.44098306971266 17.385074875331284 -1.600110324177658 0 0 0
9778 1 2 0 35.89551228599365 15.908338959799583 -2.1546281316681273 0 0 0
9915 1 2 0 41.88968816251297 16.35315492990057 -2.158964125079545 0 0 0
9925 1 2 0 46.241241773625426 17.12862926272887 -2.0901143071765844 0 0 0
7015 1 1 0 47.50803365763852 16.189160209224088 -1.6277865498174406 0 0 0
9924 1 2 0 48.980428521287294 16.706262699385277 -2.1534783519639125 0 0 0
7016 1 1 0 50.512334596505326 16.9901733156387 -1.6330162159633186 0 0 0
9922 1 2 0 51.525010356605264 15.808249042012056 -2.0966172477840317 0 0 0
9923 1 2 0 54.16720211706363 15.159809395844125 -2.185269290724523 0 0 0
7020 1 1 0 55.55328027348641 15.730983946086063 -1.5978016625647822 0 0 0
9932 1 2 0 55.59387350232096 17.304607988865957 -1.9377900525400404 0 0 0
9930 1 2 0 57.004691833978406 15.211428335904522 -2.068102126988309 0 0 0
7019 1 1 0 58.53485525389157 15.409587428350195 -1.6146114420408286 0 0 0
9931 1 2 0 59.17647292310725 16.810220294431385 -2.054714030768224 0 0 0
9833 1 2 0 66.62016928283974 15.446330840116538 -2.181434665621045 0 0 0
7023 1 1 0 66.61640673504847 16.9522077900811 -1.622960814860343 0 0 0
9936 1 2 0 68.092510474633 17.411647083295755 -2.0600376497534376 0 0 0
9934 1 2 0 70.58993554080206 16.229549952462477 -2.104000182650777 0 0 0
7024 1 1 0 69.63981667203937 17.441823758331882 -1.6193682191611607 0 0 0
7022 1 1 0 71.87583689825537 15.376446882529327 -1.6207990323890547 0 0 0
9935 1 2 0 73.2737976433947 15.969139438559123 -2.175291574976469 0 0 0
7025 1 1 0 74.71339223667417 16.444613757568273 -1.61673242273392 0 0 0
9853 1 2 0 75.86013421672055 15.319984975002633 -1.8903000604509916 0 0 0
9852 1 2 0 77.89162436882987 16.469897034067927 -2.1413255974305208 0 0 0
6969 1 1 0 83.23582005921699 15.24415822623768 -1.5895700602871976 0 0 0
9854 1 2 0 82.00317980843955 16.172308336694364 -2.040840228627899 0 0 0
9855 1 2 0 84.6305583748442 15.97926029479698 -1.9187996588087155 0 0 0
7026 1 1 0 85.68173273591701 17.15471792787366 -1.5732622283231021 0 0 0
9884 1 2 0 87.06924734036578 16.514881828651465 -2.0846358258200004 0 0 0
6987 1 1 0 88.19433404896766 15.421424316711713 -1.6386916548521337 0 0 0
9883 1 2 0 89.44601493736145 16.3919755879882 -2.1472382175809925 0 0 0
9887 1 2 0 91.96400290831403 17.195591391223086 -1.9718149495053288 0 0 0
6988 1 1 0 95.46951811495845 15.092607380572838 -1.6548582164234618 0 0 0
9885 1 2 0 94.46349007296939 16.258333631448266 -2.1831626839450347 0 0 0
6990 1 1 0 93.52537549209515 17.4482607610682 -1.6113786029652808 0 0 0
9886 1 2 0 96.9832160168121 15.629148750889003 -2.1185634282268824 0 0 0
7028 1 1 0 98.49473322313064 16.138822854215377 -1.6005708900619606 0 0 0
9477 1 2 0 8.298759355851791 17.620164559358695 -2.0046870383984463 0 0 0
6772 1 1 0 9.101890270296693 18.998708342090804 -1.6305322571994982 0 0 0
9551 1 2 0 10.590634619313203 19.44899711123216 -2.1676769057033747 0 0 0
9553 1 2 0 12.814054800925796 18.30567789239855 -1.9733937804793042 0 0 0
6774 1 1 0 12.117176201625211 19.72084024120253 -1.6037565447801012 0 0 0
9555 1 2 0 15.45715355517533 17.920925892005915 -1.9502836716296421 0 0 0
7029 1 1 0 17.047231663530805 17.86728091615441 -1.5954897656961462 0 0 0
9943 1 2 0 17.72891875593047 19.334206176006518 -1.953982293443887 0 0 0
9906 1 2 0 23.068627743910703 17.577344793204244 -2.1022111410454305 0 0 0
7051 1 1 0 24.04399053150008 18.856431550614385 -1.6562732365148505 0 0 0
9953 1 2 0 25.62694492348819 18.754215545230714 -2.1302764033083315 0 0 0
7035 1 1 0 27.168174297606864 18.507454285250095 -1.59898665839652 0 0 0
9952 1 2 0 28.551519870876167 19.239427517586254 -2.0954116761720143 0 0 0
7036 1 1 0 30.116989743017182 19.426483411490153 -1.6470796286413565 0 0 0
9913 1 2 0 31.173338693191184 18.283325417277396 -2.1571107160559446 0 0 0
9912 1 2 0 33.87553504166807 17.74002189300599 -1.871838954650048 0 0 0
9914 1 2 0 36.21508218943366 18.7147318384694 -2.137661478579244 0 0 0
9956 1 2 0 40.91473158225679 18.963985362887115 -2.1222199924423553 0 0 0
7037 1 1 0 42.092701612433416 17.899473404559327 -1.6376134274336411 0 0 0
9955 1 2 0 43.64301422281185 18.238535082427333 -2.0670238411744304 0 0 0
7038 1 1 0 45.22141245479544 18.32743047046866 -1.6241150909771631 0 0 0
9957 1 2 0 45.77666086155808 19.766482011774297 -2.148872558276905 0 0 0
9926 1 2 0 51.16304262679427 18.40756203209542 -2.1037219232319426 0 0 0
7065 1 1 0 51.41082578895204 19.944708087674766 -1.6405064178593407 0 0 0
9961 1 2 0 55.29742057836879 19.836136120920564 -2.2004124335471147 0 0 0
7041 1 1 0 56.26140322334892 18.723402302115385 -1.5870480772239461 0 0 0
9959 1 2 0 57.8000378676657 18.901493561500686 -1.9964778513254093 0 0 0
7040 1 1 0 59.246661287096366 18.337731979634658 -1.6018696166943376 0 0 0
9960 1 2 0 60.449159222148374 19.185484043088586 -2.2111918327993787 0 0 0
9962 1 2 0 62.99346235496155 19.383905513509628 -2.1441220499700875 0 0 0
7042 1 1 0 64.48324623481 19.090237551061612 -1.6033576775483305 0 0 0
9937 1 2 0 65.42694268504145 17.904675378413906 -2.1577137175486696 0 0 0
9938 1 2 0 70.06631008823838 18.89621917524456 -2.166709348764679 0 0 0
9939 1 2 0 74.9312299355294 17.970051346095065 -2.1461152199846296 0 0 0
7044 1 1 0 74.91573738305222 19.49989569902371 -1.6026679738146479 0 0 0
6971 1 1 0 78.34727721666079 18.01109713347601 -1.650125401162637 0 0 0
9858 1 2 0 78.15329307306621 19.617284642174486 -2.0892174953040428 0 0 0
9856 1 2 0 79.85754004240582 17.81008759318255 -2.1915887920649535 0 0 0
6970 1 1 0 81.32554778964872 17.567398903524744 -1.6111352132140229 0 0 0
9857 1 2 0 82.32138197960677 18.758259243975345 -2.021923110459742 0 0 0
7027 1 1 0 83.72111925360842 19.43866255606751 -1.6201643587606787 0 0 0
9940 1 2 0 84.9751450502226 18.522613767654082 -2.055489742471685 0 0 0
6989 1 1 0 90.43230165207102 17.612298028767203 -1.6132849710149955 0 0 0
9888 1 2 0 90.39465075192136 19.21509068381485 -2.051037889584049 0 0 0
9889 1 2 0 94.08710964245604 18.90772407578792 -2.063600834535192 0 0 0
9942 1 2 0 99.34459656101798 17.527535100502938 -2.0777474224740193 0 0 0
7049 1 1 0 100.50085740129238 18.674520947404126 -1.6071238317565602 0 0 0
9536 1 2 0 102.03874656387892 18.20847181644748 -1.9694214126240517 0 0 0
6773 1 1 0 6.887560658846852 21.093459826762423 -1.6214380407886035 0 0 0
9544 1 2 0 5.3796209730976114 20.79298166442711 -2.0861104287020957 0 0 0
9550 1 2 0 7.9916933907691226 20.051466856895875 -2.1468233253731803 0 0 0
9554 1 2 0 13.252587510556284 20.807010020332424 -2.1147665129842905 0 0 0
9600 1 2 0 16.084546657979892 21.36470504076584 -2.109977376478988 0 0 0
6804 1 1 0 14.535932118664793 21.741952378489646 -1.6439749263308077 0 0 0
7052 1 1 0 17.628947619100057 20.958553200591712 -1.6236214168826155 0 0 0
9974 1 2 0 18.940498776187574 21.892100122366255 -2.1208163228605237 0 0 0
9973 1 2 0 23.537223066009794 20.35488352586591 -2.1411099247041285 0 0 0
7053 1 1 0 23.32207141715136 21.919108487366483 -1.6358509507657257 0 0 0
9954 1 2 0 30.72169319790704 20.850823936528364 -2.1402221657834883 0 0 0
7060 1 1 0 31.303924003245506 22.285550791617695 -1.630534648440401 0 0 0
9986 1 2 0 32.90057115701928 22.40799088167925 -2.0735577022184257 0 0 0
9984 1 2 0 35.59938452339178 21.37422048490407 -2.106809713761 0 0 0
7059 1 1 0 36.69516149167632 20.202111763175086 -1.649013020612889 0 0 0
9985 1 2 0 38.27816723489275 20.22783783651707 -2.132577832260371 0 0 0
7064 1 1 0 39.8527509491815 20.141235791035292 -1.6227137116883246 0 0 0
9992 1 2 0 40.418678001291994 21.601473364872877 -2.0753229174566696 0 0 0
9996 1 2 0 44.9282627526188 22.2986745847956 -2.1673572630968887 0 0 0
7066 1 1 0 46.08930844553345 21.27824830378705 -1.6418342160087367 0 0 0
9995 1 2 0 47.58265171398629 21.716003375777692 -2.1020183177019516 0 0 0
7067 1 1 0 49.11444412320796 21.95966577503053 -1.6326474359238372 0 0 0
9993 1 2 0 50.1432188766653 20.81945069694246 -2.143027184535362 0 0 0
9994 1 2 0 52.799575040546415 20.634954532483256 -2.133097207474979 0 0 0
7069 1 1 0 54.309443218354104 20.97128940730952 -1.6496558533665266 0 0 0
9999 1 2 0 55.090681038568704 22.29185717242114 -2.1552924521948924 0 0 0
7043 1 1 0 61.63707080254713 20.10963745230267 -1.6644291354277505 0 0 0
9964 1 2 0 61.30921837076682 21.612840907882255 -2.167687523837205 0 0 0
9963 1 2 0 65.12452147378767 20.505000409045945 -2.021740124416206 0 0 0
7077 1 1 0 65.29282731280807 22.047111547710163 -1.6154062719982472 0 0 0
10012 1 2 0 66.73958877667599 22.417561633750733 -2.1852257865832003 0 0 0
10010 1 2 0 69.18051990324227 21.5027463102331 -2.16972364650316 0 0 0
7076 1 1 0 70.20485980173477 20.396181446413237 -1.6066668459105304 0 0 0
10011 1 2 0 71.65387615808325 20.92290239900592 -2.010109149358004 0 0 0
7081 1 1 0 72.93296505134003 21.800147474408096 -1.5958570538030101 0 0 0
9966 1 2 0 73.96039136827503 20.68468633597713 -2.1713158827503847 0 0 0
9965 1 2 0 76.2579238806801 20.2515608778972 -2.0418144952722375 0 0 0
7045 1 1 0 77.55427960800905 21.13323258930093 -1.5746449697225318 0 0 0
9941 1 2 0 83.76705553670715 20.91631905965981 -2.2194621647108144 0 0 0
7082 1 1 0 83.75405754792637 22.411685748478835 -1.660316880999845 0 0 0
9969 1 2 0 90.19125475976385 22.052288960683416 -2.1591863291837727 0 0 0
7047 1 1 0 90.97503787284508 20.709414900827976 -1.614550907955594 0 0 0
9968 1 2 0 92.57904597444089 20.960141056491373 -1.9090744836142677 0 0 0
7048 1 1 0 94.12353676761099 20.47417951087242 -1.6123085233462646 0 0 0
9970 1 2 0 95.42244668919395 21.37892025896104 -2.1214635056405973 0 0 0
9971 1 2 0 100.75948711039813 20.25635387881936 -2.1166698032228966 0 0 0
7086 1 1 0 101.3035844638753 21.766645850753914 -1.6419910843013115 0 0 0
9552 1 2 0 7.335953315176023 22.525754167280066 -2.188033606422296 0 0 0
6802 1 1 0 7.714337313999382 23.9794976251694 -1.6258314622494712 0 0 0
9595 1 2 0 9.18901558354135 24.4047565061939 -2.1443333415670156 0 0 0
9599 1 2 0 14.158052296297072 23.245727931470977 -2.1614521094212966 0 0 0
9597 1 2 0 12.022170272946989 24.867952562203534 -2.148927546278881 0 0 0
6805 1 1 0 13.57421591654454 24.68020799262178 -1.6512632481269152 0 0 0
9975 1 2 0 21.78857622652614 22.420302350264464 -2.077416250237911 0 0 0
7054 1 1 0 20.23640677033451 22.850837476629437 -1.6153598609870465 0 0 0
9977 1 2 0 20.033063567411357 24.476217170280123 -1.9297613801919096 0 0 0
9976 1 2 0 24.641539353108683 22.866653026543904 -2.0551277035656 0 0 0
7088 1 1 0 25.7083508375802 24.08926394516949 -1.612324693504064 0 0 0
10027 1 2 0 27.332967085308457 24.226304009770512 -2.111535501361968 0 0 0
7089 1 1 0 28.950322133206306 24.42050714403817 -1.6190788580811826 0 0 0
9987 1 2 0 30.132897442074167 23.3563841856608 -2.117235927470998 0 0 0
7061 1 1 0 34.50244305807648 22.54846452134687 -1.6420770063254386 0 0 0
9988 1 2 0 35.004921969455175 24.039538288394244 -2.1472692092063137 0 0 0
10039 1 2 0 39.70644360645062 24.243997792193333 -2.1420505843724533 0 0 0
7095 1 1 0 40.796822956452004 23.12066966011582 -1.6360908270819172 0 0 0
10038 1 2 0 42.33740709361149 23.337499945494134 -2.137187604260876 0 0 0
7096 1 1 0 43.88395769788546 23.43253204984553 -1.6282978223491582 0 0 0
10040 1 2 0 44.45960009995085 24.86751892302386 -2.094930121235458 0 0 0
9997 1 2 0 49.671039581679814 23.379590976002266 -2.1763531837109444 0 0 0
7122 1 1 0 50.170400114253795 24.823975941483404 -1.6487110695540317 0 0 0
10050 1 2 0 54.209502310454894 24.449708217793493 -2.003196000659059 0 0 0
7102 1 1 0 55.5854021538886 23.725389582796712 -1.5969338653924292 0 0 0
10049 1 2 0 56.910956225583334 24.457542189971164 -2.1606692387644846 0 0 0
10047 1 2 0 59.40067269791867 23.692264686854646 -2.09646363570674 0 0 0
7101 1 1 0 60.766188177126566 23.01785690407772 -1.5794992406322879 0 0 0
10048 1 2 0 61.881125489169186 24.158413389852438 -1.7872646940946564 0 0 0
7104 1 1 0 63.44549964329419 24.442988317455065 -1.591608491603243 0 0 0
10013 1 2 0 64.23745827298265 23.14546949049835 -2.1389954098168396 0 0 0
7078 1 1 0 68.21334608642564 22.666189805430363 -1.6230481553287461 0 0 0
10014 1 2 0 68.56902111558696 24.16773008097559 -2.048078745946468 0 0 0
10018 1 2 0 72.7236880964657 23.302591789740518 -2.158940018338483 0 0 0
7106 1 1 0 72.25605326813522 24.76806079598028 -1.6493928827613276 0 0 0
7105 1 1 0 76.07835940460515 24.016452359886493 -1.5880003066678496 0 0 0
9967 1 2 0 76.776954316773 22.54536949710247 -2.0882798638163127 0 0 0
10054 1 2 0 77.51502919681937 24.593927635157613 -2.0663271997778607 0 0 0
10058 1 2 0 80.0336897451302 24.751026860569088 -2.1597897702783997 0 0 0
10020 1 2 0 82.39939461524084 23.157307397286537 -2.0914602290952042 0 0 0
7108 1 1 0 81.48883571823913 24.37759566895658 -1.5945906970346537 0 0 0
10019 1 2 0 85.08466182765923 23.141208267384325 -2.1979659391120223 0 0 0
10021 1 2 0 87.78514768887489 23.07492314226442 -1.793367194409902 0 0 0
7084 1 1 0 86.39271142347322 23.845266868146 -1.5840196396904824 0 0 0
7083 1 1 0 89.36570884146418 23.350557936452287 -1.590259857447903 0 0 0
10025 1 2 0 95.24077568422085 23.712126782271895 -1.85722530259252 0 0 0
7085 1 1 0 96.41704485425153 22.619921193422766 -1.596336819883262 0 0 0
10024 1 2 0 97.79360287313055 23.45244925780944 -2.113841018133965 0 0 0
10026 1 2 0 100.18523930121145 22.858846061032196 -2.09589717028568 0 0 0
7087 1 1 0 99.27306737254801 24.133368887190848 -1.6256999926900553 0 0 0
9606 1 2 0 102.74517463412849 22.47515213632022 -2.1037637384201906 0 0 0
9596 1 2 0 6.437300029831735 24.887895927913437 -2.0138324714154257 0 0 0
6815 1 1 0 4.918453873193774 25.29435258860845 -1.61078163560168 0 0 0
9189 1 2 0 4.887805037066916 26.808239476895128 -2.1642542086945578 0 0 0
6803 1 1 0 10.51503615300581 25.168815470429443 -1.596809773725634 0 0 0
9598 1 2 0 10.042565541414602 26.682042036144395 -1.923631256667503 0 0 0
9601 1 2 0 14.588762013482947 25.880650544407192 -2.1184332644080186 0 0 0
7137 1 1 0 15.370081355765228 27.22643639779156 -1.5983326842330003 0 0 0
7115 1 1 0 20.50400440397905 26.046147328667264 -1.6222593218712669 0 0 0
10069 1 2 0 19.499657330838556 27.30172748972098 -2.129596584038342 0 0 0
10068 1 2 0 22.089216265939193 26.240691551155734 -2.0815475734954214 0 0 0
7116 1 1 0 23.64885979862351 26.541844471769107 -1.6058559315515848 0 0 0
10028 1 2 0 24.80049595929344 25.421145457177886 -1.9826739485919713 0 0 0
10029 1 2 0 29.79339764841581 25.804833876489635 -2.0015956597764157 0 0 0
7139 1 1 0 30.525099802202558 27.242947030150955 -1.612953887294245 0 0 0
7118 1 1 0 35.62463436611538 25.482209033130815 -1.6310871339148996 0 0 0
10073 1 2 0 34.73184106772192 26.808865461268326 -2.0910576546827926 0 0 0
10072 1 2 0 37.21347494545057 25.530149670378506 -2.080715680945733 0 0 0