ITEM: TIMESTEP
1445
ITEM: NUMBER OF ATOMS
15744
ITEM: BOX BOUNDS pp pp pp
0.0000000000000000e+00 2.0608581167576531e+02
0.0000000000000000e+00 1.7761572022619242e+02
-1.0000000000000000e+02 1.0000000000000000e+02
ITEM: ATOMS id type element x y z v_uncoordination
1 1 Si 143.573 174.633 1.6149 0
2 1 Si 140.494 174.164 1.59014 0
3 1 Si 143.449 171.469 1.63596 0
4 1 Si 140.299 171.014 1.57837 0
5 1 Si 145.177 177.374 1.63964 0
6 1 Si 142.566 2.34181 1.65091 0
7 1 Si 139.101 2.19008 1.6417 0
8 1 Si 137.453 174.85 1.62225 0
9 1 Si 136.555 0.172861 1.62555 0
10 1 Si 148.661 176.197 1.6187 0
11 1 Si 145.559 169.149 1.61628 0
12 1 Si 148.773 170.081 1.61062 0
13 1 Si 150.641 173.168 1.62391 0
14 1 Si 201.349 175.961 1.62755 0
15 1 Si 198.172 175.427 1.62662 0
16 1 Si 203.753 173.647 1.63902 0
17 1 Si 197.382 172.334 1.61083 0
18 1 Si 199.667 170.021 1.63098 0
19 1 Si 202.933 170.515 1.62319 0
20 1 Si 202 1.51555 1.64548 0
21 1 Si 195.643 177.517 1.64344 0
22 1 Si 196.301 3.11612 1.62449 0
23 1 Si 199.579 3.7596 1.63358 0
24 1 Si 205.202 2.18029 1.64116 0
25 1 Si 1.42645 177.539 1.63673 0
26 1 Si 0.868357 174.391 1.61531 0
27 1 Si 192.856 175.815 1.61585 0
28 1 Si 189.508 176.264 1.63136 0
29 1 Si 194.214 172.846 1.62304 0
30 1 Si 192.415 170.294 1.62083 0
31 1 Si 189.3 170.928 1.6141 0
32 1 Si 187.354 173.516 1.63696 0
33 1 Si 190.648 4.58007 1.6266 0
34 1 Si 188.52 1.8176 1.62076 0
35 1 Si 193.956 5.53058 1.64913 0
36 1 Si 185.631 5.49971 1.62625 0
37 1 Si 185.142 2.20998 1.62022 0
38 1 Si 188.589 7.06705 1.63018 0
39 1 Si 108.591 33.1337 1.6351 0
40 1 Si 105.538 34.293 1.63882 0
41 1 Si 110.777 30.6671 1.62872 0
42 1 Si 106.333 27.679 1.61541 0
43 1 Si 103.353 29.159 1.65021 0
44 1 Si 109.659 27.7227 1.62475 0
45 1 Si 102.836 32.3894 1.62458 0
46 1 Si 110.785 35.3385 1.63243 0
47 1 Si 107.859 39.7035 1.6285 0
48 1 Si 105.212 37.5982 1.62849 0
49 1 Si 110.836 38.4861 1.63909 0
50 1 Si 114.003 31.1597 1.60835 0
51 1 Si 113.683 34.2539 1.63171 0
52 1 Si 108.988 4.87 1.61829 0
53 1 Si 111.433 7.0264 1.61466 0
54 1 Si 106.331 6.88792 1.61738 0
55 1 Si 107.096 10.0554 1.62882 0
56 1 Si 110.369 10.1364 1.60956 0
57 1 Si 108.998 1.53261 1.61344 0
58 1 Si 116.481 3.90158 1.6155 0
59 1 Si 114.618 6.55934 1.62225 0
60 1 Si 116.159 0.768036 1.60448 0
61 1 Si 110.849 176.326 1.62386 0
62 1 Si 114.047 176.033 1.61892 0
63 1 Si 103.111 6.1837 1.62308 0
64 1 Si 103.064 2.65348 1.64337 0
65 1 Si 105.849 0.62941 1.62663 0
66 1 Si 119.612 4.76546 1.6258 0
67 1 Si 119.473 7.98182 1.6248 0
68 1 Si 116.483 9.22808 1.60523 0
69 1 Si 122.327 2.90215 1.61568 0
70 1 Si 121.892 177.331 1.6244 0
71 1 Si 118.767 176.551 1.60458 0
72 1 Si 125.653 3.09006 1.62846 0
73 1 Si 127.17 5.92513 1.62734 0
74 1 Si 125.248 8.67886 1.60622 0
75 1 Si 122.108 9.79618 1.62738 0
76 1 Si 127.501 0.325782 1.60794 0
77 1 Si 124.901 176.003 1.60573 0
78 1 Si 130.556 5.81378 1.62827 0
79 1 Si 131.841 8.69503 1.63412 0
80 1 Si 130.166 11.3912 1.63263 0
81 1 Si 126.952 11.3941 1.60894 0
82 1 Si 133.259 3.88632 1.63257 0
83 1 Si 130.64 176.679 1.62754 0
84 1 Si 133.356 0.762946 1.62479 0
85 1 Si 107.79 42.9943 1.62663 0
86 1 Si 104.547 43.8251 1.6277 0
87 1 Si 102.077 38.665 1.64299 0
88 1 Si 101.846 41.9052 1.64312 0
89 1 Si 115.674 42.0889 1.62434 0
90 1 Si 113.939 39.3676 1.63291 0
91 1 Si 113.916 44.8859 1.62602 0
92 1 Si 110.488 45.1373 1.63867 0
93 1 Si 137.455 7.19349 1.6423 0
94 1 Si 136.54 4.23752 1.63081 0
95 1 Si 134.982 9.1508 1.6213 0
96 1 Si 143.111 5.64019 1.61788 0
97 1 Si 140.587 7.69685 1.62417 0
98 1 Si 145.604 7.79642 1.62779 0
99 1 Si 140.703 10.8492 1.61653 0
100 1 Si 145.937 11.1229 1.62528 0
101 1 Si 143.249 12.6414 1.62438 0
102 1 Si 149.999 4.0019 1.5958 0
103 1 Si 148.567 6.82962 1.63489 0
104 1 Si 150.866 0.927058 1.63796 0
105 1 Si 152.921 5.16005 1.62771 0
106 1 Si 153.415 8.19172 1.62434 0
107 1 Si 150.54 9.36258 1.61285 0
108 1 Si 155.482 3.4349 1.63712 0
109 1 Si 154.164 0.554031 1.61361 0
110 1 Si 158.413 4.74402 1.6379 0
111 1 Si 158.907 7.97763 1.63836 0
112 1 Si 156.21 9.61284 1.64411 0
113 1 Si 160.84 2.62769 1.62667 0
114 1 Si 160.083 176.932 1.62785 0
115 1 Si 156.545 175.94 1.63639 0
116 1 Si 163.633 4.47067 1.63768 0
117 1 Si 164.086 7.89975 1.63704 0
118 1 Si 161.553 9.9489 1.62943 0
119 1 Si 166.237 2.52951 1.624 0
120 1 Si 166.285 176.74 1.6251 0
121 1 Si 163.135 175.249 1.61207 0
122 1 Si 168.774 4.58681 1.62921 0
123 1 Si 169.377 7.76657 1.64316 0
124 1 Si 166.846 9.80031 1.63762 0
125 1 Si 171.361 2.87138 1.64494 0
126 1 Si 171.66 177.411 1.62188 0
127 1 Si 169.407 175.238 1.63815 0
128 1 Si 174.32 3.7044 1.62866 0
129 1 Si 175.075 6.67558 1.63368 0
130 1 Si 172.511 8.73015 1.64642 0
131 1 Si 176.445 1.3959 1.63415 0
132 1 Si 174.679 176.491 1.62117 0
133 1 Si 178.145 5.40438 1.62656 0
134 1 Si 179.408 2.31952 1.63045 0
135 1 Si 183.251 7.57738 1.60718 0
136 1 Si 180.054 7.85522 1.62857 0
137 1 Si 184.14 10.5819 1.61504 0
138 1 Si 178.679 10.7515 1.62158 0
139 1 Si 181.484 12.147 1.62511 0
140 1 Si 182.071 0.28701 1.65773 0
141 1 Si 189.358 10.3368 1.6147 0
142 1 Si 186.818 12.2036 1.62302 0
143 1 Si 195.181 8.75648 1.62482 0
144 1 Si 194.382 12.0531 1.62533 0
145 1 Si 191.328 13.076 1.62194 0
146 1 Si 200.649 6.83767 1.64071 0
147 1 Si 198.398 9.19653 1.63923 0
148 1 Si 0.191949 5.23594 1.63921 0
149 1 Si 203.894 7.52019 1.64425 0
150 1 Si 3.48407 5.73387 1.64177 0
151 1 Si 204.827 10.6498 1.64696 0
152 1 Si 2.02869 11.1755 1.64283 0
153 1 Si 4.45572 8.82873 1.63994 0
154 1 Si 5.84419 3.39758 1.63533 0
155 1 Si 4.59832 0.458001 1.62943 0
156 1 Si 105.136 12.7433 1.63474 0
157 1 Si 101.703 12.7006 1.62607 0
158 1 Si 101.011 9.17919 1.62228 0
159 1 Si 135.397 12.2561 1.61639 0
160 1 Si 132.525 13.5694 1.6211 0
161 1 Si 138.411 13.0816 1.63084 0
162 1 Si 172.848 11.9385 1.6232 0
163 1 Si 176.009 12.5467 1.64433 0
164 1 Si 199.274 12.3215 1.63042 0
165 1 Si 196.759 14.3969 1.61386 0
166 1 Si 202.462 13.0053 1.64158 0
167 1 Si 112.4 12.7351 1.62782 0
168 1 Si 107.313 15.2365 1.62112 0
169 1 Si 110.646 15.4424 1.62969 0
170 1 Si 115.726 12.427 1.62917 0
171 1 Si 121.435 13.0377 1.61677 0
172 1 Si 118.325 14.5654 1.65062 0
173 1 Si 124.658 13.67 1.61771 0
174 1 Si 125.955 16.5224 1.64397 0
175 1 Si 132.252 16.6897 1.63293 0
176 1 Si 129.102 17.3977 1.59614 0
177 1 Si 150.709 12.5138 1.65328 0
178 1 Si 147.882 13.8012 1.62847 0
179 1 Si 156.248 12.7376 1.61625 0
180 1 Si 153.421 14.1524 1.62455 0
181 1 Si 161.712 13.3897 1.63106 0
182 1 Si 158.717 14.7627 1.62512 0
183 1 Si 167.208 13.1873 1.61892 0
184 1 Si 164.546 15.3665 1.62835 0
185 1 Si 170.384 14.2356 1.63422 0
186 1 Si 182.001 15.1592 1.62862 0
187 1 Si 176.421 15.6861 1.6274 0
188 1 Si 179.332 16.66 1.64463 0
189 1 Si 187.25 15.3943 1.61717 0
190 1 Si 184.557 16.9992 1.64204 0
191 1 Si 190.304 16.3835 1.62264 0
192 1 Si 203.191 16.1966 1.64699 0
193 1 Si 2.79161 14.3592 1.63827 0
194 1 Si 0.425579 16.7357 1.6453 0
195 1 Si 117.631 17.9272 1.62503 0
196 1 Si 123.255 18.2447 1.63949 0
197 1 Si 120.351 19.5395 1.65098 0
198 1 Si 139.512 16.0574 1.6211 0
199 1 Si 134.739 18.8543 1.61848 0
200 1 Si 138.007 18.896 1.64964 0
201 1 Si 142.677 15.7403 1.6205 0
202 1 Si 171.164 17.4694 1.61142 0
203 1 Si 174.296 17.9714 1.62097 0
204 1 Si 197.274 17.738 1.6417 0
205 1 Si 191.339 19.7842 1.63824 0
206 1 Si 194.856 20.2501 1.61693 0
207 1 Si 200.628 18.4367 1.63489 0
208 1 Si 6.02426 14.9575 1.63078 0
209 1 Si 7.78769 9.22829 1.63748 0
210 1 Si 8.37306 12.4844 1.63496 0
211 1 Si 106.549 18.3031 1.63103 0
212 1 Si 103.709 19.7284 1.6223 0
213 1 Si 99.3417 15.9743 1.62589 0
214 1 Si 100.586 18.9907 1.63059 0
215 1 Si 112.093 18.4002 1.61382 0
216 1 Si 109.299 19.9678 1.61757 0
217 1 Si 114.973 20.1254 1.64078 0
218 1 Si 125.156 20.5953 1.62494 0
219 1 Si 130.334 20.3369 1.60964 0
220 1 Si 127.838 21.9969 1.64614 0
221 1 Si 147.847 17.0634 1.62215 0
222 1 Si 144.778 18.1032 1.64622 0
223 1 Si 153.846 17.2967 1.62752 0
224 1 Si 150.784 18.6373 1.63188 0
225 1 Si 157.187 17.6777 1.63814 0
226 1 Si 164.712 19.0428 1.6245 0
227 1 Si 158.806 20.5528 1.63141 0
228 1 Si 162.13 21.2115 1.61778 0
229 1 Si 170.334 20.6893 1.63298 0
230 1 Si 167.182 21.4578 1.61477 0
231 1 Si 180.326 19.5278 1.62551 0
232 1 Si 175.222 20.9735 1.62769 0
233 1 Si 178.237 21.7536 1.62575 0
234 1 Si 183.411 19.9181 1.60253 0
235 1 Si 182.987 23.0862 1.6347 0
236 1 Si 189.102 22.7569 1.62214 0
237 1 Si 185.916 24.4093 1.61309 0
238 1 Si 1.33324 19.8776 1.62992 0
239 1 Si 4.50039 20.9277 1.6206 0
240 1 Si 6.52125 18.2646 1.6187 0
241 1 Si 120.278 22.6844 1.6379 0
242 1 Si 114.781 23.8143 1.62995 0
243 1 Si 119.936 25.8226 1.65306 0
244 1 Si 116.919 26.6529 1.61171 0
245 1 Si 123.287 22.9541 1.63314 0
246 1 Si 133.219 21.6074 1.61182 0
247 1 Si 140.161 21.3958 1.60964 0
248 1 Si 143.346 20.9666 1.61531 0
249 1 Si 172.793 22.9841 1.60953 0
250 1 Si 201.576 21.5949 1.63223 0
251 1 Si 196.093 23.462 1.62372 0
252 1 Si 199.406 24.2052 1.64884 0
253 1 Si 204.876 21.9624 1.62662 0
254 1 Si 109.229 23.0889 1.61573 0
255 1 Si 106.426 24.533 1.62279 0
256 1 Si 103.804 22.8906 1.62533 0
257 1 Si 119.041 41.8669 1.62459 0
258 1 Si 115.629 36.6661 1.63252 0
259 1 Si 118.717 36.1278 1.62934 0
260 1 Si 120.527 38.8918 1.64563 0
261 1 Si 120.932 44.6094 1.64392 0
262 1 Si 116.026 47.4994 1.62861 0
263 1 Si 119.333 47.4972 1.64956 0
264 1 Si 111.689 25.0838 1.60231 0
265 1 Si 124.673 25.5918 1.60213 0
266 1 Si 127.651 25.0354 1.61769 0
267 1 Si 134.4 24.5284 1.62178 0
268 1 Si 140.12 24.6504 1.62514 0
269 1 Si 137.267 25.9632 1.63305 0
270 1 Si 150.618 21.822 1.62986 0
271 1 Si 144.843 23.8007 1.6279 0
272 1 Si 148.041 23.8454 1.61409 0
273 1 Si 153.453 23.3239 1.6131 0
274 1 Si 156.686 23.0546 1.63186 0
275 1 Si 163.157 24.4433 1.62308 0
276 1 Si 166.47 24.7778 1.62033 0
277 1 Si 179.891 24.4125 1.6121 0
278 1 Si 190.619 25.6254 1.62696 0
279 1 Si 193.939 26.0309 1.6544 0
280 1 Si 205.805 24.976 1.62531 0
281 1 Si 2.63031 26.2055 1.6289 0
282 1 Si 5.15174 24.2869 1.62896 0
283 1 Si 122.493 27.7216 1.60908 0
284 1 Si 129.335 27.5451 1.6308 0
285 1 Si 132.389 26.9334 1.62895 0
286 1 Si 142.872 26.392 1.61907 0
287 1 Si 149.033 26.8938 1.62565 0
288 1 Si 152.195 26.2766 1.61582 0
289 1 Si 157.813 26.0297 1.61552 0
290 1 Si 160.911 26.9187 1.63628 0
291 1 Si 174.122 26.0664 1.63938 0
292 1 Si 168.267 27.7853 1.64633 0
293 1 Si 171.718 28.3811 1.62767 0
294 1 Si 177.576 26.8229 1.62924 0
295 1 Si 185.055 27.7324 1.61015 0
296 1 Si 188.318 27.9972 1.62259 0
297 1 Si 200.664 27.3899 1.62041 0
298 1 Si 194.946 29.1704 1.62857 0
299 1 Si 200.569 30.8746 1.6335 0
300 1 Si 197.46 31.3229 1.62269 0
301 1 Si 203.788 27.3999 1.63701 0
302 1 Si 100.983 24.2665 1.63835 0
303 1 Si 100.536 27.4287 1.63538 0
304 1 Si 117.083 30.1581 1.62909 0
305 1 Si 124.33 30.2697 1.63777 0
306 1 Si 127.563 30.1765 1.62902 0
307 1 Si 133.924 29.5511 1.6115 0
308 1 Si 136.983 29.0906 1.60881 0
309 1 Si 147.062 29.5732 1.62826 0
310 1 Si 143.687 29.6209 1.64604 0
311 1 Si 9.19324 3.60733 1.63547 0
312 1 Si 10.2547 6.79285 1.63367 0
313 1 Si 11.0233 0.736746 1.61786 0
314 1 Si 9.53519 175.438 1.62928 0
315 1 Si 6.3215 175.378 1.61515 0
316 1 Si 155.048 27.6303 1.62338 0
317 1 Si 16.2955 5.01096 1.62598 0
318 1 Si 16.8862 1.4208 1.62752 0
319 1 Si 14.1694 177.236 1.63073 0
320 1 Si 13.6189 7.47659 1.63478 0
321 1 Si 21.9713 4.26543 1.63664 0
322 1 Si 19.3263 6.41283 1.64371 0
323 1 Si 22.5978 0.935817 1.62004 0
324 1 Si 19.7432 176.754 1.63415 0
325 1 Si 11.554 172.897 1.61932 0
326 1 Si 14.5929 173.944 1.61321 0
327 1 Si 24.7155 5.91209 1.62487 0
328 1 Si 24.9179 9.07944 1.63806 0
329 1 Si 19.5838 9.83866 1.65018 0
330 1 Si 22.5739 11.1804 1.6291 0
331 1 Si 27.7835 5.06249 1.62567 0
332 1 Si 28.6424 2.05434 1.62873 0
333 1 Si 25.957 177.605 1.61592 0
334 1 Si 160.879 30.235 1.62809 0
335 1 Si 166.523 30.6585 1.62164 0
336 1 Si 163.528 32.081 1.62806 0
337 1 Si 29.7807 7.52517 1.63461 0
338 1 Si 27.9176 10.0353 1.64578 0
339 1 Si 35.5231 6.46078 1.61329 0
340 1 Si 32.8573 8.11429 1.62143 0
341 1 Si 34.9195 3.43129 1.62439 0
342 1 Si 31.9568 2.03273 1.60681 0
343 1 Si 38.4248 7.78305 1.61261 0
344 1 Si 34.2684 10.9122 1.62776 0
345 1 Si 37.4771 10.8291 1.64514 0
346 1 Si 37.7307 1.87275 1.61624 0
347 1 Si 33.0866 176.701 1.6219 0
348 1 Si 36.3088 176.666 1.62486 0
349 1 Si 41.0528 5.85568 1.62673 0
350 1 Si 40.891 2.55131 1.63301 0
351 1 Si 178.986 29.9384 1.63323 0
352 1 Si 182.593 30.3054 1.64844 0
353 1 Si 53.2607 5.60162 1.63896 0
354 1 Si 56.3269 7.08917 1.63315 0
355 1 Si 51.5229 8.2612 1.6397 0
356 1 Si 52.3711 11.3178 1.61447 0
357 1 Si 57.3909 10.5902 1.63356 0
358 1 Si 55.1364 13.0342 1.62848 0
359 1 Si 58.4462 4.55447 1.62116 0
360 1 Si 58.3339 1.1714 1.61899 0
361 1 Si 51.4934 2.66322 1.63444 0
362 1 Si 52.8462 177.226 1.62649 0
363 1 Si 56.0255 176.533 1.63482 0
364 1 Si 63.6448 3.9255 1.61206 0
365 1 Si 61.3179 6.09994 1.63411 0
366 1 Si 63.6052 0.641414 1.63297 0
367 1 Si 60.8608 176.654 1.61971 0
368 1 Si 189.456 30.9198 1.62915 0
369 1 Si 192.617 31.2954 1.62376 0
370 1 Si 66.0922 6.06549 1.61709 0
371 1 Si 65.5029 9.30784 1.62386 0
372 1 Si 62.2788 9.25084 1.6413 0
373 1 Si 68.7791 4.37509 1.622 0
374 1 Si 68.7073 1.0575 1.60681 0
375 1 Si 66.336 176.532 1.62665 0
376 1 Si 73.1492 3.51432 1.61585 0
377 1 Si 71.4563 6.28373 1.62478 0
378 1 Si 73.7343 0.28111 1.62244 0
379 1 Si 71.0285 176.413 1.61744 0
380 1 Si 76.1788 3.62974 1.63301 0
381 1 Si 77.7897 6.15907 1.64091 0
382 1 Si 77.9079 9.1559 1.63683 0
383 1 Si 72.3474 9.55689 1.65617 0
384 1 Si 75.3673 10.8882 1.61584 0
385 1 Si 78.0319 1.12179 1.64071 0
386 1 Si 76.4682 176.118 1.62619 0
387 1 Si 205.231 30.159 1.61593 0
388 1 Si 2.11533 29.2841 1.61857 0
389 1 Si 80.546 4.94627 1.62896 0
390 1 Si 80.9615 1.94202 1.61528 0
391 1 Si 82.7358 7.0052 1.6385 0
392 1 Si 80.9874 9.49969 1.63586 0
393 1 Si 85.2994 5.43446 1.64214 0
394 1 Si 84.0104 2.52437 1.63842 0
395 1 Si 87.8939 7.13769 1.61003 0
396 1 Si 87.7977 10.333 1.64285 0
397 1 Si 82.3899 12.1681 1.61037 0
398 1 Si 85.4787 12.4645 1.62167 0
399 1 Si 90.295 5.0496 1.6106 0
400 1 Si 88.9657 1.95208 1.62386 0
401 1 Si 85.9626 0.139336 1.61237 0
402 1 Si 7.77354 26.3217 1.62354 0
403 1 Si 8.08946 29.6636 1.60644 0
404 1 Si 10.5743 24.6299 1.62525 0
405 1 Si 13.1082 26.6807 1.62335 0
406 1 Si 13.124 30.0424 1.62525 0
407 1 Si 10.5142 31.9176 1.62435 0
408 1 Si 93.1773 6.55549 1.63403 0
409 1 Si 93.049 9.75262 1.6444 0
410 1 Si 90.589 11.7433 1.6232 0
411 1 Si 96.309 5.64487 1.6223 0
412 1 Si 97.0985 2.32179 1.64249 0
413 1 Si 91.3202 177.448 1.62819 0
414 1 Si 94.6182 0.0771644 1.62231 0
415 1 Si 122.639 32.9357 1.63913 0
416 1 Si 119.363 32.8617 1.64007 0
417 1 Si 97.7551 8.71459 1.63274 0
418 1 Si 95.7155 11.4073 1.60271 0
419 1 Si 100.213 0.849379 1.62593 0
420 1 Si 14.125 10.9007 1.62681 0
421 1 Si 11.6024 13.115 1.63341 0
422 1 Si 129.503 32.6971 1.65103 0
423 1 Si 132.648 32.3666 1.61588 0
424 1 Si 17.2078 12.2368 1.65801 0
425 1 Si 154.963 30.6866 1.62425 0
426 1 Si 148.956 32.1658 1.62308 0
427 1 Si 152.119 32.0843 1.62062 0
428 1 Si 29.1478 12.9307 1.62944 0
429 1 Si 32.3477 13.3898 1.62994 0
430 1 Si 157.995 31.7749 1.6045 0
431 1 Si 138.249 31.9149 1.63491 0
432 1 Si 141.448 32.287 1.63491 0
433 1 Si 46.5083 5.52666 1.62775 0
434 1 Si 43.8111 7.41242 1.62984 0
435 1 Si 48.4123 7.98199 1.61946 0
436 1 Si 43.9277 10.7151 1.63592 0
437 1 Si 47.0365 10.7756 1.61424 0
438 1 Si 48.0933 2.67351 1.63693 0
439 1 Si 42.8494 177.453 1.63928 0
440 1 Si 46.1989 177.566 1.62764 0
441 1 Si 173.191 31.4285 1.63156 0
442 1 Si 176.391 32.3254 1.60995 0
443 1 Si 67.0512 12.2418 1.63688 0
444 1 Si 70.3436 12.1354 1.64692 0
445 1 Si 168.101 33.4298 1.61629 0
446 1 Si 171.183 34.0138 1.62805 0
447 1 Si 205.142 33.3347 1.641 0
448 1 Si 202.129 34.1011 1.62572 0
449 1 Si 184.209 33.3079 1.60787 0
450 1 Si 187.437 33.3746 1.6119 0
451 1 Si 127.916 35.3898 1.62304 0
452 1 Si 124.706 35.4119 1.6368 0
453 1 Si 135.539 33.6872 1.62891 0
454 1 Si 141.033 35.6163 1.62318 0
455 1 Si 148.912 35.3437 1.63295 0
456 1 Si 146.558 37.2813 1.6205 0
457 1 Si 143.486 37.5288 1.62212 0
458 1 Si 23.6441 14.2993 1.6314 0
459 1 Si 26.8689 15.1778 1.63276 0
460 1 Si 39.0651 13.6019 1.62299 0
461 1 Si 42.3131 13.5472 1.63069 0
462 1 Si 153.592 34.7946 1.61985 0
463 1 Si 156.738 34.6503 1.63743 0
464 1 Si 49.5068 12.6833 1.62286 0
465 1 Si 163.354 35.4144 1.62863 0
466 1 Si 166.415 36.1363 1.61397 0
467 1 Si 60.513 12.0546 1.63102 0
468 1 Si 175.808 35.7587 1.62829 0
469 1 Si 184.069 36.5865 1.63655 0
470 1 Si 178.31 37.5168 1.62332 0
471 1 Si 181.329 37.8566 1.61723 0
472 1 Si 65.3937 15.213 1.62966 0
473 1 Si 62.0079 15.3273 1.63984 0
474 1 Si 77.1421 13.639 1.62648 0
475 1 Si 71.8888 14.953 1.6345 0
476 1 Si 74.9729 15.8418 1.62688 0
477 1 Si 194.118 34.0804 1.61634 0
478 1 Si 189.28 35.9111 1.63015 0
479 1 Si 192.366 36.5888 1.62062 0
480 1 Si 80.2601 14.4674 1.60898 0
481 1 Si 197.233 34.5767 1.61318 0
482 1 Si 85.5386 15.6254 1.625 0
483 1 Si 82.5086 16.7401 1.64375 0
484 1 Si 90.9385 14.9402 1.61745 0
485 1 Si 88.3551 17.1359 1.64202 0
486 1 Si 3.30006 32.1155 1.63079 0
487 1 Si 6.32121 32.2528 1.61938 0
488 1 Si 94.2358 14.4611 1.63433 0
489 1 Si 1.81843 34.8632 1.59359 0
490 1 Si 95.9098 17.2194 1.62282 0
491 1 Si 11.758 16.3208 1.59686 0
492 1 Si 9.6293 18.6873 1.61895 0
493 1 Si 18.0289 15.6336 1.62714 0
494 1 Si 13.3203 19.0457 1.63733 0
495 1 Si 16.3986 18.6142 1.61748 0
496 1 Si 21.2541 16.4989 1.63824 0
497 1 Si 135.367 36.7774 1.61299 0
498 1 Si 132.617 38.4936 1.63471 0
499 1 Si 129.385 38.2008 1.62057 0
500 1 Si 33.9495 16.1616 1.64534 0
501 1 Si 37.2428 16.3407 1.64354 0
502 1 Si 138.456 37.7027 1.60347 0
503 1 Si 49.3678 15.768 1.62442 0
504 1 Si 43.5751 16.5439 1.62678 0
505 1 Si 46.64 17.3242 1.61292 0
506 1 Si 151.559 37.1031 1.61173 0
507 1 Si 51.995 17.5815 1.61576 0
508 1 Si 55.0739 16.462 1.64168 0
509 1 Si 158.132 37.407 1.6165 0
510 1 Si 161.242 37.9217 1.61132 0
511 1 Si 70.3727 17.7153 1.64751 0
512 1 Si 67.1369 18.0861 1.63258 0
513 1 Si 170.95 37.3089 1.62138 0
514 1 Si 173.77 38.7392 1.63314 0
515 1 Si 188.612 38.8964 1.61963 0
516 1 Si 185.62 39.4589 1.62514 0
517 1 Si 198.638 37.5211 1.6247 0
518 1 Si 201.893 37.5906 1.6158 0
519 1 Si 28.3828 18.0851 1.6322 0
520 1 Si 22.5055 19.5466 1.62308 0
521 1 Si 25.824 20.1723 1.61894 0
522 1 Si 123.754 38.4249 1.63003 0
523 1 Si 31.7499 18.5582 1.63027 0
524 1 Si 134.284 41.1371 1.6202 0
525 1 Si 137.473 40.7291 1.63587 0
526 1 Si 38.6411 19.3216 1.64267 0
527 1 Si 41.9502 19.3212 1.61865 0
528 1 Si 146.729 40.3622 1.6182 0
529 1 Si 143.637 40.6943 1.62777 0
530 1 Si 47.6177 20.3463 1.59389 0
531 1 Si 50.8359 20.62 1.6406 0
532 1 Si 153.076 39.8255 1.65792 0
533 1 Si 156.226 39.9248 1.63431 0
534 1 Si 57.2758 19.081 1.65152 0
535 1 Si 60.6574 18.6333 1.63 0
536 1 Si 168.023 38.8744 1.6244 0
537 1 Si 160.809 41.1761 1.62693 0
538 1 Si 166.44 41.8206 1.62197 0
539 1 Si 163.301 43.0848 1.62633 0
540 1 Si 178.14 40.6111 1.63452 0
541 1 Si 181.182 40.9468 1.61573 0
542 1 Si 75.773 18.8946 1.62461 0
543 1 Si 72.7086 19.8982 1.63444 0
544 1 Si 193.622 39.53 1.64361 0
545 1 Si 196.771 40.2321 1.62089 0
546 1 Si 81.8099 19.8413 1.62268 0
547 1 Si 78.5603 20.5393 1.63495 0
548 1 Si 87.7063 20.4565 1.62835 0
549 1 Si 84.5167 21.803 1.62893 0
550 1 Si 4.29861 36.862 1.64927 0
551 1 Si 7.09693 35.299 1.61771 0
552 1 Si 93.7105 20.5316 1.61558 0
553 1 Si 90.4293 22.3816 1.64328 0
554 1 Si 95.8522 23.0158 1.62507 0
555 1 Si 98.9126 21.8423 1.63207 0
556 1 Si 11.2179 21.4307 1.63455 0
557 1 Si 126.644 39.9673 1.62223 0
558 1 Si 17.0248 21.8701 1.6089 0
559 1 Si 20.2465 21.8602 1.6039 0
560 1 Si 33.1905 21.4961 1.61826 0
561 1 Si 36.5477 21.9594 1.63682 0
562 1 Si 151.541 42.5192 1.61442 0
563 1 Si 148.448 42.9113 1.62285 0
564 1 Si 44.5536 21.3272 1.62878 0
565 1 Si 173.348 42.3283 1.61607 0
566 1 Si 176.412 43.1916 1.63588 0
567 1 Si 157.86 42.6145 1.63624 0
568 1 Si 52.909 23.1337 1.60899 0
569 1 Si 56.0374 22.2274 1.61225 0
570 1 Si 190.883 41.048 1.61857 0
571 1 Si 62.5333 21.5866 1.62176 0
572 1 Si 65.9711 21.2443 1.64177 0
573 1 Si 203.533 40.7299 1.6526 0
574 1 Si 0.920876 41.3607 1.62498 0
575 1 Si 4.1244 40.0373 1.62339 0
576 1 Si 198.069 43.2742 1.63097 0
577 1 Si 201.462 43.5525 1.62701 0
578 1 Si 126.97 43.1188 1.62582 0
579 1 Si 124.227 44.8934 1.62074 0
580 1 Si 129.94 44.6173 1.62082 0
581 1 Si 133.219 44.0866 1.63079 0
582 1 Si 138.94 43.538 1.62556 0
583 1 Si 142.226 43.6376 1.63905 0
584 1 Si 27.082 23.0985 1.63471 0
585 1 Si 30.4413 23.3639 1.63334 0
586 1 Si 152.914 45.3132 1.60373 0
587 1 Si 156.099 45.3661 1.63752 0
588 1 Si 44.5285 24.4585 1.62695 0
589 1 Si 37.983 24.9597 1.63711 0
590 1 Si 41.2233 25.0426 1.6426 0
591 1 Si 47.5365 26.1978 1.60981 0
592 1 Si 52.8706 26.4579 1.62019 0
593 1 Si 50.2569 28.3734 1.62724 0
594 1 Si 168.258 44.45 1.6293 0
595 1 Si 171.305 45.2296 1.61981 0
596 1 Si 57.606 25.0725 1.63766 0
597 1 Si 60.8385 24.5769 1.62048 0
598 1 Si 182.885 43.5542 1.65042 0
599 1 Si 177.936 46.0176 1.63385 0
600 1 Si 181.226 46.2302 1.62175 0
601 1 Si 185.849 42.6195 1.60896 0
602 1 Si 71.6981 22.9054 1.62822 0
603 1 Si 68.4245 23.6679 1.63147 0
604 1 Si 188.918 43.5116 1.63564 0
605 1 Si 189.406 46.622 1.62655 0
606 1 Si 196.08 45.9561 1.63119 0
607 1 Si 192.799 46.6964 1.60291 0
608 1 Si 77.6023 23.6016 1.62646 0
609 1 Si 74.4539 24.6651 1.64262 0
610 1 Si 1.6792 44.5343 1.60784 0
611 1 Si 4.5067 46.017 1.63154 0
612 1 Si 7.27644 41.4027 1.60693 0
613 1 Si 7.27278 44.618 1.61489 0
614 1 Si 83.398 24.9599 1.61552 0
615 1 Si 80.2228 25.4518 1.62873 0
616 1 Si 109.536 48.2701 1.62672 0
617 1 Si 106.418 48.9994 1.63676 0
618 1 Si 103.967 46.9733 1.64613 0
619 1 Si 89.4943 25.9375 1.61375 0
620 1 Si 84.1475 28.2311 1.62809 0
621 1 Si 87.3256 28.811 1.6224 0
622 1 Si 95.029 26.3232 1.62414 0
623 1 Si 92.0689 27.8588 1.62943 0
624 1 Si 125.737 47.7316 1.62379 0
625 1 Si 128.937 47.6366 1.62159 0
626 1 Si 15.91 24.9826 1.6185 0
627 1 Si 136.252 45.5114 1.6219 0
628 1 Si 21.2852 24.8767 1.60541 0
629 1 Si 18.6382 26.715 1.6248 0
630 1 Si 24.4881 25.1424 1.63949 0
631 1 Si 30.9669 26.428 1.63142 0
632 1 Si 28.449 28.2489 1.60606 0
633 1 Si 25.3847 28.0955 1.63975 0
634 1 Si 144.118 46.4398 1.63797 0
635 1 Si 147.393 45.913 1.61687 0
636 1 Si 33.403 28.3954 1.62613 0
637 1 Si 36.5206 27.9268 1.63612 0
638 1 Si 161.537 45.9642 1.64292 0
639 1 Si 166.772 47.1625 1.63184 0
640 1 Si 163.813 47.9112 1.61027 0
641 1 Si 42.3286 27.83 1.60201 0
642 1 Si 45.3484 28.2576 1.60153 0
643 1 Si 55.8386 27.8569 1.62567 0
644 1 Si 170.614 48.8178 1.62738 0
645 1 Si 176.125 48.6682 1.61933 0
646 1 Si 173.337 50.3375 1.62366 0
647 1 Si 202.709 46.7246 1.61659 0
648 1 Si 205.915 47.182 1.62775 0
649 1 Si 67.7568 26.9081 1.63546 0
650 1 Si 61.8348 27.632 1.63727 0
651 1 Si 64.9109 28.2458 1.61436 0
652 1 Si 111.556 50.7825 1.64721 0
653 1 Si 114.747 50.4697 1.64097 0
654 1 Si 121.038 50.3437 1.64151 0
655 1 Si 124.26 50.537 1.63309 0
656 1 Si 97.4515 28.5565 1.64681 0
657 1 Si 136.564 48.7505 1.62747 0
658 1 Si 130.664 50.3094 1.6373 0
659 1 Si 133.833 50.6635 1.61604 0
660 1 Si 139.557 50.2652 1.63196 0
661 1 Si 142.947 49.6098 1.64349 0
662 1 Si 29.0424 31.2955 1.61204 0
663 1 Si 32.1108 31.2993 1.63146 0
664 1 Si 150.364 47.2982 1.63126 0
665 1 Si 37.5509 30.9603 1.62727 0
666 1 Si 42.5082 30.8228 1.64 0
667 1 Si 40.1719 32.6218 1.61823 0
668 1 Si 156.658 48.5564 1.62005 0
669 1 Si 159.778 48.8655 1.63541 0
670 1 Si 45.4818 31.2869 1.61139 0
671 1 Si 50.7339 31.8865 1.6122 0
672 1 Si 47.8131 33.1999 1.62095 0
673 1 Si 166.287 50.2357 1.64954 0
674 1 Si 168.73 52.0058 1.61731 0
675 1 Si 74.0343 27.828 1.60817 0
676 1 Si 69.1186 29.8962 1.62293 0
677 1 Si 72.1755 30.4399 1.62164 0
678 1 Si 183.16 48.8297 1.63719 0
679 1 Si 186.561 48.6874 1.63767 0
680 1 Si 79.5014 28.4982 1.63182 0
681 1 Si 76.601 29.5857 1.6182 0
682 1 Si 197.697 48.8045 1.628 0
683 1 Si 192.787 49.8266 1.60859 0
684 1 Si 195.601 51.1185 1.61154 0
685 1 Si 81.7688 30.6625 1.58913 0
686 1 Si 200.864 49.4881 1.61929 0
687 1 Si 91.2531 31.1111 1.62669 0
688 1 Si 88.1131 32.2148 1.60655 0
689 1 Si 1.62388 49.9214 1.6153 0
690 1 Si 4.69309 49.2038 1.61506 0
691 1 Si 18.5122 29.8761 1.61445 0
692 1 Si 15.8945 31.7671 1.6125 0
693 1 Si 110.375 53.7591 1.64056 0
694 1 Si 107.363 54.5466 1.62602 0
695 1 Si 105.569 52.0132 1.64342 0
696 1 Si 116.492 53.1997 1.64156 0
697 1 Si 119.698 53.3034 1.64126 0
698 1 Si 24.1141 30.9553 1.62618 0
699 1 Si 21.0885 31.6895 1.61319 0
700 1 Si 125.885 53.3555 1.6301 0
701 1 Si 129.065 53.1379 1.63021 0
702 1 Si 26.4778 33.031 1.62637 0
703 1 Si 133.431 53.9111 1.61996 0
704 1 Si 138.725 53.384 1.61709 0
705 1 Si 136.165 55.3228 1.62873 0
706 1 Si 33.2573 34.1729 1.64003 0
707 1 Si 36.3137 33.827 1.65198 0
708 1 Si 151.284 50.3647 1.61893 0
709 1 Si 145.275 52.176 1.64295 0
710 1 Si 148.694 52.4121 1.63433 0
711 1 Si 154.589 51.1044 1.62823 0
712 1 Si 60.1441 30.4095 1.6284 0
713 1 Si 57.013 30.9739 1.64225 0
714 1 Si 163.333 50.9691 1.59199 0
715 1 Si 64.9107 31.3951 1.61366 0
716 1 Si 62.1475 32.8426 1.63929 0
717 1 Si 177.91 51.2265 1.62561 0
718 1 Si 181.093 51.3878 1.63603 0
719 1 Si 67.6496 32.7951 1.62488 0
720 1 Si 187.493 51.7232 1.61291 0
721 1 Si 190.573 51.9263 1.61388 0
722 1 Si 96.8762 31.809 1.64341 0
723 1 Si 93.7825 33.169 1.63231 0
724 1 Si 201.747 52.6674 1.65616 0
725 1 Si 1.61344 53.1518 1.61971 0
726 1 Si 204.625 54.3059 1.63489 0
727 1 Si 99.6931 33.5897 1.63412 0
728 1 Si 115.01 56.0115 1.63304 0
729 1 Si 111.897 56.477 1.62586 0
730 1 Si 10.2609 35.2934 1.6401 0
731 1 Si 121.235 56.2152 1.63694 0
732 1 Si 124.496 56.3197 1.6371 0
733 1 Si 16.9581 34.8719 1.6339 0
734 1 Si 20.2132 34.7465 1.61325 0
735 1 Si 130.801 55.8264 1.61965 0
736 1 Si 25.9943 36.1002 1.62387 0
737 1 Si 28.8096 37.7246 1.61531 0
738 1 Si 31.965 37.0314 1.63069 0
739 1 Si 140.859 55.6582 1.6409 0
740 1 Si 143.971 55.1895 1.63135 0
741 1 Si 40.9652 35.5996 1.62121 0
742 1 Si 38.0267 36.4441 1.63572 0
743 1 Si 150.413 55.2066 1.61807 0
744 1 Si 155.986 54.1949 1.62281 0
745 1 Si 153.532 56.3064 1.63148 0
746 1 Si 56.1206 34.2436 1.62771 0
747 1 Si 52.7856 34.7142 1.64307 0
748 1 Si 160.505 52.083 1.64055 0
749 1 Si 61.8524 35.9994 1.62159 0
750 1 Si 58.5606 36.6805 1.62575 0
751 1 Si 76.3462 32.7237 1.61663 0
752 1 Si 73.2026 33.5503 1.62722 0
753 1 Si 173.101 53.6216 1.63681 0
754 1 Si 176.244 53.923 1.62513 0
755 1 Si 79.6048 33.281 1.63412 0
756 1 Si 181.499 54.5459 1.61635 0
757 1 Si 186.972 54.8921 1.63086 0
758 1 Si 184.175 56.3048 1.62149 0
759 1 Si 87.22 35.7829 1.63534 0
760 1 Si 80.192 36.4877 1.62699 0
761 1 Si 83.7887 37.2759 1.62211 0
762 1 Si 93.2012 36.459 1.63947 0
763 1 Si 90.0647 37.95 1.63487 0
764 1 Si 194.674 54.0868 1.63346 0
765 1 Si 191.673 54.8132 1.61414 0
766 1 Si 199.511 54.9636 1.62101 0
767 1 Si 196.65 56.3754 1.63244 0
768 1 Si 15.6801 37.9126 1.62647 0
769 1 Si 12.2288 38.0712 1.64281 0
770 1 Si 4.80475 54.2864 1.62477 0
771 1 Si 6.88005 51.5698 1.62192 0
772 1 Si 22.7479 36.792 1.62908 0
773 1 Si 116.282 58.8819 1.62041 0
774 1 Si 119.508 59.009 1.63725 0
775 1 Si 129.594 58.9383 1.64222 0
776 1 Si 126.218 59.1742 1.64051 0
777 1 Si 136.287 58.4897 1.61227 0
778 1 Si 139.411 58.4442 1.625 0
779 1 Si 46.4103 36.0059 1.63354 0
780 1 Si 43.5212 37.2665 1.62601 0
781 1 Si 145.451 58.0387 1.63303 0
782 1 Si 148.618 57.8021 1.63079 0
783 1 Si 51.4752 37.9579 1.61789 0
784 1 Si 48.3218 38.3855 1.61397 0
785 1 Si 159.297 55.1041 1.62314 0
786 1 Si 67.8672 36.0269 1.62888 0
787 1 Si 64.8172 37.6814 1.63397 0
788 1 Si 167.688 55.3776 1.60588 0
789 1 Si 170.943 56.1267 1.6236 0
790 1 Si 71.2524 36.3232 1.62804 0
791 1 Si 178.624 55.9871 1.62161 0
792 1 Si 161.183 58.1041 1.63232 0
793 1 Si 164.916 57.8611 1.63347 0
794 1 Si 99.2652 36.8405 1.63975 0
795 1 Si 96.14 38.1031 1.64664 0
796 1 Si 189.482 56.9602 1.63614 0
797 1 Si 200.775 57.7728 1.62142 0
798 1 Si 203.891 57.4596 1.61656 0
799 1 Si 110.62 59.4216 1.62327 0
800 1 Si 107.377 60.1567 1.63151 0
801 1 Si 105.814 57.3381 1.63669 0
802 1 Si 21.8233 39.8385 1.62742 0
803 1 Si 18.3238 40.2499 1.62758 0
804 1 Si 24.8139 41.6025 1.63155 0
805 1 Si 28.1698 40.8527 1.60657 0
806 1 Si 131.568 61.7012 1.63108 0
807 1 Si 134.925 61.3676 1.63548 0
808 1 Si 143.88 60.9018 1.6384 0
809 1 Si 140.684 61.2709 1.6132 0
810 1 Si 37.2149 39.453 1.63464 0
811 1 Si 33.964 39.533 1.61573 0
812 1 Si 42.9661 40.3927 1.6083 0
813 1 Si 39.8541 41.4465 1.63567 0
814 1 Si 150.584 60.2609 1.61179 0
815 1 Si 153.719 59.577 1.61057 0
816 1 Si 51.0989 41.3984 1.61243 0
817 1 Si 58.3651 39.9376 1.61727 0
818 1 Si 56.328 42.4933 1.61061 0
819 1 Si 53.2787 43.8354 1.62587 0
820 1 Si 178.419 59.1382 1.62838 0
821 1 Si 172.074 59.2567 1.65203 0
822 1 Si 175.323 60.3223 1.64213 0
823 1 Si 181.326 60.7847 1.6108 0
824 1 Si 184.35 59.5522 1.62269 0
825 1 Si 76.6784 38.4393 1.65481 0
826 1 Si 72.8449 39.2219 1.63112 0
827 1 Si 83.4819 40.5806 1.62144 0
828 1 Si 77.4146 41.5233 1.61721 0
829 1 Si 80.5642 41.9098 1.61106 0
830 1 Si 195.621 59.3869 1.62149 0
831 1 Si 198.673 60.062 1.63958 0
832 1 Si 90.1533 41.4563 1.62535 0
833 1 Si 85.0699 43.4111 1.62825 0
834 1 Si 88.1195 44.2249 1.6295 0
835 1 Si 205.191 60.3681 1.64282 0
836 1 Si 2.48523 59.9137 1.6013 0
837 1 Si 5.22888 57.6723 1.61902 0
838 1 Si 10.6062 41.0409 1.63131 0
839 1 Si 113.589 60.7188 1.63036 0
840 1 Si 17.8668 43.4896 1.62118 0
841 1 Si 23.9785 44.727 1.64425 0
842 1 Si 20.6449 45.2243 1.60029 0
843 1 Si 120.865 61.971 1.62394 0
844 1 Si 124.437 62.0689 1.65859 0
845 1 Si 31.4305 41.5707 1.6205 0
846 1 Si 148.92 62.9154 1.63015 0
847 1 Si 145.758 63.4346 1.61943 0
848 1 Si 46.159 40.7752 1.6241 0
849 1 Si 155.843 62.1024 1.63931 0
850 1 Si 159.283 61.3165 1.631 0
851 1 Si 166.279 60.9138 1.62509 0
852 1 Si 169.567 61.4472 1.64524 0
853 1 Si 48.1326 43.1703 1.62743 0
854 1 Si 64.3846 40.9946 1.65701 0
855 1 Si 61.1074 41.6953 1.60507 0
856 1 Si 70.5621 42.2978 1.61274 0
857 1 Si 67.0093 43.2262 1.6514 0
858 1 Si 176.059 63.4573 1.61034 0
859 1 Si 181.405 64.0643 1.62555 0
860 1 Si 178.586 65.4895 1.62331 0