ITEM: TIMESTEP
2719
ITEM: NUMBER OF ATOMS
15648
ITEM: BOX BOUNDS pp pp pp
0.0000000000000000e+00 2.0457472345752123e+02
0.0000000000000000e+00 1.7793610981291405e+02
-1.0000000000000000e+02 1.0000000000000000e+02
ITEM: ATOMS id type element x y z v_uncoordination
1 1 Si 115.08 27.5384 1.63034 0
2 1 Si 112.467 29.3693 1.63976 0
3 1 Si 110.979 24.5436 1.63384 0
4 1 Si 114.046 24.6626 1.62691 0
5 1 Si 109.923 27.4447 1.62175 0
6 1 Si 112.855 32.5232 1.6245 0
7 1 Si 116.085 33.1855 1.63808 0
8 1 Si 118.25 27.598 1.63369 0
9 1 Si 118.513 30.8315 1.6286 0
10 1 Si 110.234 34.5834 1.63088 0
11 1 Si 111.127 37.9808 1.61517 0
12 1 Si 116.652 36.46 1.63858 0
13 1 Si 114.415 38.9556 1.62602 0
14 1 Si 129.858 34.833 1.62505 0
15 1 Si 131.394 32.093 1.63021 0
16 1 Si 126.929 33.7683 1.62182 0
17 1 Si 129.627 29.447 1.63225 0
18 1 Si 126.729 30.6202 1.62745 0
19 1 Si 131.077 37.7138 1.62782 0
20 1 Si 134.268 37.542 1.62557 0
21 1 Si 134.506 32.1535 1.63756 0
22 1 Si 136.178 34.9148 1.64208 0
23 1 Si 129.79 40.6715 1.63627 0
24 1 Si 124.642 35.8283 1.61951 0
25 1 Si 124.675 38.9408 1.60344 0
26 1 Si 126.658 41.3755 1.62743 0
27 1 Si 134.706 40.698 1.63887 0
28 1 Si 132.177 42.7806 1.61834 0
29 1 Si 108.755 1.76729 1.61623 0
30 1 Si 112.127 2.40129 1.62383 0
31 1 Si 106.006 3.77708 1.62213 0
32 1 Si 112.42 5.67592 1.63709 0
33 1 Si 106.482 7.09074 1.63114 0
34 1 Si 109.718 7.81482 1.63748 0
35 1 Si 107.989 176.496 1.62432 0
36 1 Si 114.984 0.319352 1.64736 0
37 1 Si 110.574 174.471 1.62537 0
38 1 Si 113.798 175.104 1.61435 0
39 1 Si 102.764 2.73253 1.63864 0
40 1 Si 102.086 177.425 1.61128 0
41 1 Si 104.815 175.589 1.62465 0
42 1 Si 120.762 3.64368 1.62194 0
43 1 Si 119.017 6.33299 1.64235 0
44 1 Si 118.581 1.01603 1.61617 0
45 1 Si 115.65 6.50894 1.59595 0
46 1 Si 124.242 3.7808 1.61488 0
47 1 Si 127.186 5.99687 1.61437 0
48 1 Si 126.936 9.28548 1.61267 0
49 1 Si 121.263 8.80564 1.59303 0
50 1 Si 124.028 10.6714 1.65429 0
51 1 Si 124.413 0.464581 1.61778 0
52 1 Si 121.24 176.916 1.622 0
53 1 Si 130.662 6.23815 1.62931 0
54 1 Si 132.609 3.59126 1.63797 0
55 1 Si 130.674 0.816663 1.61908 0
56 1 Si 127.615 177.273 1.65098 0
57 1 Si 132.352 9.20425 1.61344 0
58 1 Si 129.67 11.1492 1.61937 0
59 1 Si 136.078 3.57198 1.62876 0
60 1 Si 136.078 0.327859 1.60679 0
61 1 Si 133.22 176.867 1.62347 0
62 1 Si 139.02 5.57732 1.62959 0
63 1 Si 138.886 9.00048 1.63513 0
64 1 Si 135.65 10.4346 1.6344 0
65 1 Si 142.27 4.33123 1.64136 0
66 1 Si 142.282 0.964947 1.62151 0
67 1 Si 137.827 175.576 1.6373 0
68 1 Si 140.975 175.806 1.63839 0
69 1 Si 145.427 6.06514 1.63525 0
70 1 Si 145.375 9.56535 1.63237 0
71 1 Si 142.011 10.7602 1.61415 0
72 1 Si 148.532 4.2931 1.64338 0
73 1 Si 148.026 1.01624 1.62299 0
74 1 Si 145.147 177.634 1.61331 0
75 1 Si 151.998 5.03118 1.63863 0
76 1 Si 153.609 8.43199 1.63353 0
77 1 Si 148.403 11.8217 1.62611 0
78 1 Si 151.976 11.5979 1.63207 0
79 1 Si 154.016 2.04267 1.63764 0
80 1 Si 152.008 174.412 1.6307 0
81 1 Si 154.439 176.437 1.62565 0
82 1 Si 149.284 175.969 1.61339 0
83 1 Si 158.405 5.68019 1.61717 0
84 1 Si 157.14 2.70056 1.64156 0
85 1 Si 157.113 8.65029 1.6183 0
86 1 Si 161.594 6.00886 1.61258 0
87 1 Si 163.417 3.46084 1.6306 0
88 1 Si 162.106 0.614843 1.62725 0
89 1 Si 159.028 0.0946196 1.61068 0
90 1 Si 162.87 8.95044 1.60733 0
91 1 Si 159.979 10.647 1.63974 0
92 1 Si 166.561 3.37786 1.62436 0
93 1 Si 168.473 0.804979 1.62114 0
94 1 Si 163.933 176.013 1.61046 0
95 1 Si 167.089 175.936 1.63285 0
96 1 Si 168.038 6.15003 1.60804 0
97 1 Si 166.23 8.96469 1.64844 0
98 1 Si 170.832 4.42082 1.64087 0
99 1 Si 171.635 1.24058 1.61421 0
100 1 Si 173.23 6.3463 1.64214 0
101 1 Si 172.935 9.3948 1.63514 0
102 1 Si 167.847 11.7974 1.61588 0
103 1 Si 171.032 11.7553 1.64241 0
104 1 Si 176.221 5.69558 1.61468 0
105 1 Si 178.131 3.35882 1.63796 0
106 1 Si 177.149 0.398411 1.62159 0
107 1 Si 174.211 177.04 1.64337 0
108 1 Si 177.964 8.21346 1.61177 0
109 1 Si 175.847 10.3466 1.62746 0
110 1 Si 180.519 5.3815 1.65179 0
111 1 Si 183.445 4.56953 1.62341 0
112 1 Si 182.341 1.62452 1.62475 0
113 1 Si 180.124 177.332 1.63517 0
114 1 Si 181 8.46286 1.59231 0
115 1 Si 185.885 6.55612 1.60717 0
116 1 Si 185.612 9.85189 1.63953 0
117 1 Si 182.574 11.1473 1.6316 0
118 1 Si 187.175 3.58249 1.64675 0
119 1 Si 185.349 0.921939 1.5995 0
120 1 Si 192.748 4.91072 1.60867 0
121 1 Si 190.221 2.81135 1.62288 0
122 1 Si 193.547 8.15291 1.63819 0
123 1 Si 191.341 10.7486 1.6055 0
124 1 Si 188.175 11.843 1.63161 0
125 1 Si 195.06 2.64727 1.60913 0
126 1 Si 193.569 177.643 1.64194 0
127 1 Si 190.345 177.452 1.61615 0
128 1 Si 198.259 3.40422 1.65028 0
129 1 Si 199.456 6.54233 1.62467 0
130 1 Si 196.912 8.75586 1.62262 0
131 1 Si 199.948 0.632548 1.61666 0
132 1 Si 0.802995 5.30768 1.61726 0
133 1 Si 202.779 7.55948 1.63049 0
134 1 Si 0.89145 1.96334 1.6197 0
135 1 Si 203.087 177.748 1.63408 0
136 1 Si 195.322 174.966 1.63426 0
137 1 Si 198.465 175.707 1.61291 0
138 1 Si 4.05264 6.10088 1.62012 0
139 1 Si 203.6 10.9415 1.62771 0
140 1 Si 2.31401 12.0302 1.62695 0
141 1 Si 4.8692 9.5719 1.62878 0
142 1 Si 5.55667 2.89736 1.60724 0
143 1 Si 3.66912 0.191951 1.59663 0
144 1 Si 103.905 9.31011 1.62866 0
145 1 Si 101.008 8.02017 1.60679 0
146 1 Si 100.246 4.89672 1.6235 0
147 1 Si 115.448 9.63403 1.60823 0
148 1 Si 109.959 11.0878 1.64936 0
149 1 Si 113.099 11.7025 1.63103 0
150 1 Si 118.475 10.2545 1.63413 0
151 1 Si 177.011 13.172 1.59861 0
152 1 Si 180.198 13.4166 1.62212 0
153 1 Si 197.956 11.8376 1.62023 0
154 1 Si 192.637 13.7189 1.62813 0
155 1 Si 195.774 14.2101 1.61589 0
156 1 Si 200.98 13.1226 1.62343 0
157 1 Si 107.859 13.654 1.63383 0
158 1 Si 102.69 12.476 1.63296 0
159 1 Si 104.774 14.9435 1.64032 0
160 1 Si 124.472 13.9601 1.61416 0
161 1 Si 119.046 13.1835 1.5898 0
162 1 Si 121.568 14.8608 1.58972 0
163 1 Si 129.981 14.4445 1.61127 0
164 1 Si 125.214 17.2249 1.64579 0
165 1 Si 128.362 17.3492 1.62011 0
166 1 Si 135.728 13.7908 1.61953 0
167 1 Si 132.973 15.6111 1.61464 0
168 1 Si 141.756 14.1542 1.62446 0
169 1 Si 138.624 15.4293 1.62408 0
170 1 Si 147.709 15.1245 1.59794 0
171 1 Si 144.566 16.048 1.61362 0
172 1 Si 153.904 14.6901 1.62317 0
173 1 Si 149.484 17.9893 1.63928 0
174 1 Si 152.731 17.9124 1.62067 0
175 1 Si 160.28 14.0042 1.63547 0
176 1 Si 157.177 15.472 1.61779 0
177 1 Si 166.745 14.8738 1.61587 0
178 1 Si 163.417 15.6642 1.63709 0
179 1 Si 173.804 13.3904 1.63948 0
180 1 Si 172.905 16.3243 1.60317 0
181 1 Si 169.617 16.6235 1.64146 0
182 1 Si 187.657 15.1537 1.61767 0
183 1 Si 190.722 16.2787 1.61876 0
184 1 Si 200.354 16.4508 1.62893 0
185 1 Si 3.05334 15.4907 1.63878 0
186 1 Si 202.269 19.169 1.62975 0
187 1 Si 0.973269 18.3489 1.63085 0
188 1 Si 114.13 14.6549 1.63157 0
189 1 Si 109.219 16.4607 1.60744 0
190 1 Si 112.266 17.072 1.61468 0
191 1 Si 117.042 15.502 1.60239 0
192 1 Si 179.277 16.5066 1.63868 0
193 1 Si 176.044 17.3475 1.59603 0
194 1 Si 185.229 17.4261 1.62336 0
195 1 Si 182.033 18.1647 1.62311 0
196 1 Si 197.141 17.1246 1.60965 0
197 1 Si 6.39007 16.1992 1.6267 0
198 1 Si 8.15669 10.8001 1.60461 0
199 1 Si 8.88107 14.0526 1.62444 0
200 1 Si 98.5742 10.0989 1.60455 0
201 1 Si 99.4074 13.2277 1.62863 0
202 1 Si 105.545 20.79 1.61961 0
203 1 Si 103.664 18.1577 1.6051 0
204 1 Si 108.258 19.3902 1.64589 0
205 1 Si 119.57 17.1568 1.64471 0
206 1 Si 120.567 19.9783 1.62222 0
207 1 Si 123.676 20.1794 1.59769 0
208 1 Si 132.418 18.8481 1.63141 0
209 1 Si 129.544 20.476 1.62067 0
210 1 Si 137.974 18.6149 1.62991 0
211 1 Si 135.201 20.3282 1.63435 0
212 1 Si 145.086 19.2565 1.61716 0
213 1 Si 139.991 21.038 1.62226 0
214 1 Si 143.067 21.6558 1.64002 0
215 1 Si 147.914 20.876 1.60727 0
216 1 Si 157.314 18.74 1.60984 0
217 1 Si 154.684 20.7085 1.61284 0
218 1 Si 163.254 18.922 1.61366 0
219 1 Si 160.216 19.9908 1.6306 0
220 1 Si 170.485 19.65 1.63194 0
221 1 Si 165.289 21.4958 1.63923 0
222 1 Si 168.456 22.1666 1.63219 0
223 1 Si 173.729 19.5866 1.63463 0
224 1 Si 192.044 19.3403 1.6427 0
225 1 Si 186.348 20.443 1.6102 0
226 1 Si 189.402 21.3022 1.59444 0
227 1 Si 195.449 19.9583 1.63544 0
228 1 Si 113.082 20.0122 1.61691 0
229 1 Si 118.473 22.1844 1.5961 0
230 1 Si 115.451 21.9187 1.64633 0
231 1 Si 181.304 21.2921 1.62066 0
232 1 Si 175.356 22.2146 1.63626 0
233 1 Si 178.488 22.7403 1.63603 0
234 1 Si 184.117 22.7263 1.62042 0
235 1 Si 200.985 22.4197 1.61358 0
236 1 Si 197.617 22.6766 1.61111 0
237 1 Si 2.17366 21.4138 1.60725 0
238 1 Si 1.23078 24.583 1.64302 0
239 1 Si 202.695 25.4704 1.6308 0
240 1 Si 5.3414 21.5796 1.6336 0
241 1 Si 7.56198 19.2999 1.62238 0
242 1 Si 105.278 23.9862 1.60138 0
243 1 Si 102.085 23.5371 1.60576 0
244 1 Si 101.167 20.3212 1.63946 0
245 1 Si 110.403 21.5719 1.61008 0
246 1 Si 122.992 23.4315 1.64647 0
247 1 Si 120.038 24.8778 1.60643 0
248 1 Si 128.409 23.8454 1.63074 0
249 1 Si 125.384 25.5384 1.63163 0
250 1 Si 135.281 23.5285 1.60979 0
251 1 Si 138.39 23.7049 1.59803 0
252 1 Si 147.827 24.2491 1.63741 0
253 1 Si 144.63 24.4644 1.63693 0
254 1 Si 154.918 24.2475 1.63895 0
255 1 Si 149.585 27.1965 1.63366 0
256 1 Si 153.056 27.1521 1.63291 0
257 1 Si 160.329 23.095 1.6215 0
258 1 Si 158.036 25.2384 1.64184 0
259 1 Si 163.362 23.9721 1.61369 0
260 1 Si 173.197 24.4588 1.61282 0
261 1 Si 170.115 24.9251 1.62232 0
262 1 Si 178.161 25.8321 1.62462 0
263 1 Si 175.202 26.7709 1.61592 0
264 1 Si 187.78 24.1344 1.58197 0
265 1 Si 184.949 25.8154 1.60629 0
266 1 Si 196.882 25.9369 1.63319 0
267 1 Si 193.687 25.755 1.5639 0
268 1 Si 190.11 26.0568 1.6012 0
269 1 Si 3.63469 26.7618 1.60635 0
270 1 Si 5.99693 24.6425 1.61964 0
271 1 Si 133.716 26.3129 1.64528 0
272 1 Si 130.52 26.3628 1.63345 0
273 1 Si 139.884 26.3576 1.61803 0
274 1 Si 142.89 27.0841 1.60855 0
275 1 Si 163.006 27.027 1.61947 0
276 1 Si 159.936 27.7847 1.60978 0
277 1 Si 170.297 28.1181 1.63138 0
278 1 Si 164.779 29.5413 1.62161 0
279 1 Si 167.825 29.9358 1.60504 0
280 1 Si 179.964 28.345 1.61644 0
281 1 Si 183.104 28.6255 1.6308 0
282 1 Si 198.647 28.9011 1.63677 0
283 1 Si 192.401 28.7969 1.59418 0
284 1 Si 193.885 31.4275 1.62953 0
285 1 Si 197 31.8475 1.63894 0
286 1 Si 202.035 28.9541 1.63183 0
287 1 Si 106.816 26.8812 1.64518 0
288 1 Si 124.17 28.7642 1.62577 0
289 1 Si 121.72 31.1258 1.63902 0
290 1 Si 135.372 29.1064 1.63987 0
291 1 Si 138.478 29.0924 1.59445 0
292 1 Si 141.492 29.8926 1.63759 0
293 1 Si 147.926 30.2929 1.61628 0
294 1 Si 145.191 32.3804 1.60064 0
295 1 Si 141.919 32.9778 1.62336 0
296 1 Si 154.656 30.2138 1.60293 0
297 1 Si 160.191 30.9467 1.64879 0
298 1 Si 157.334 32.2339 1.63591 0
299 1 Si 175.24 29.8629 1.63754 0
300 1 Si 172.268 30.689 1.64766 0
301 1 Si 178.151 30.9314 1.60834 0
302 1 Si 189.284 29.0687 1.57891 0
303 1 Si 182.773 31.994 1.63421 0
304 1 Si 188.183 31.9856 1.63403 0
305 1 Si 185.48 33.794 1.63069 0
306 1 Si 204.187 32.258 1.63303 0
307 1 Si 3.09698 32.6286 1.62854 0
308 1 Si 4.87101 29.7739 1.63703 0
309 1 Si 105.803 29.9188 1.61928 0
310 1 Si 102.632 29.2981 1.6297 0
311 1 Si 100.822 26.5321 1.65253 0
312 1 Si 149.8 32.9234 1.61934 0
313 1 Si 152.954 32.9427 1.62592 0
314 1 Si 163.102 32.1962 1.59392 0
315 1 Si 179.778 33.6096 1.61596 0
316 1 Si 191.181 33.0822 1.63111 0
317 1 Si 197.246 35.1673 1.63567 0
318 1 Si 203.059 35.5228 1.62417 0
319 1 Si 200.038 36.8434 1.62208 0
320 1 Si 107.2 32.9398 1.63499 0
321 1 Si 8.31384 0.903351 1.63175 0
322 1 Si 10.9542 6.29945 1.61406 0
323 1 Si 10.4986 3.16 1.6441 0
324 1 Si 11.2775 9.48386 1.63751 0
325 1 Si 4.0222 174.714 1.63108 0
326 1 Si 6.95356 173.268 1.62315 0
327 1 Si 9.3436 175.565 1.61088 0
328 1 Si 13.8876 5.35967 1.5922 0
329 1 Si 13.4795 2.27997 1.57164 0
330 1 Si 18.3191 3.98343 1.62699 0
331 1 Si 21.3377 4.56477 1.60563 0
332 1 Si 16.6943 6.61859 1.62341 0
333 1 Si 22.8528 7.31873 1.61106 0
334 1 Si 17.7619 9.55753 1.6398 0
335 1 Si 21.1453 10.0616 1.65108 0
336 1 Si 16.4492 1.4761 1.65334 0
337 1 Si 22.8355 1.85569 1.61062 0
338 1 Si 17.6411 176.568 1.63077 0
339 1 Si 20.8266 177.329 1.63146 0
340 1 Si 121.83 34.3779 1.60532 0
341 1 Si 25.7291 5.93062 1.64382 0
342 1 Si 25.8372 2.75193 1.61368 0
343 1 Si 36.3697 2.27332 1.61413 0
344 1 Si 33.8087 177.93 1.6214 0
345 1 Si 31.1974 5.23193 1.60983 0
346 1 Si 31.1654 1.92488 1.63304 0
347 1 Si 36.4101 5.73611 1.63501 0
348 1 Si 33.5585 7.41455 1.62078 0
349 1 Si 38.9796 0.323084 1.65314 0
350 1 Si 38.6412 175.031 1.61532 0
351 1 Si 33.6302 174.394 1.63731 0
352 1 Si 36.4149 172.676 1.62349 0
353 1 Si 28.6101 7.16193 1.6216 0
354 1 Si 28.1609 0.613055 1.60953 0
355 1 Si 148.382 35.8077 1.62881 0
356 1 Si 145.221 35.6656 1.6052 0
357 1 Si 42.0221 1.3805 1.62563 0
358 1 Si 43.8284 4.02001 1.62768 0
359 1 Si 42.1513 6.72043 1.60825 0
360 1 Si 39.0997 7.67747 1.6243 0
361 1 Si 44.4232 177.315 1.61284 0
362 1 Si 47.0216 3.32349 1.63293 0
363 1 Si 47.4781 0.149611 1.59359 0
364 1 Si 41.1707 173.125 1.62418 0
365 1 Si 44.0436 174.261 1.61828 0
366 1 Si 154.457 35.7799 1.61014 0
367 1 Si 157.648 35.5136 1.59654 0
368 1 Si 52.6946 4.36496 1.61406 0
369 1 Si 49.5006 5.34125 1.636 0
370 1 Si 53.6138 7.39436 1.61624 0
371 1 Si 48.5794 8.52161 1.62692 0
372 1 Si 51.4539 9.70334 1.61075 0
373 1 Si 55.1991 2.08573 1.63552 0
374 1 Si 54.5674 176.64 1.62444 0
375 1 Si 51.9604 174.232 1.63159 0
376 1 Si 48.8895 175.176 1.64358 0
377 1 Si 58.4121 3.39642 1.63512 0
378 1 Si 58.9042 6.74941 1.61938 0
379 1 Si 56.4045 8.79789 1.63183 0
380 1 Si 61.3251 1.75156 1.63219 0
381 1 Si 62.9355 176.769 1.62192 0
382 1 Si 60.5805 174.649 1.64342 0
383 1 Si 57.3337 174.948 1.61405 0
384 1 Si 171.436 33.7716 1.60446 0
385 1 Si 168.443 32.9763 1.59334 0
386 1 Si 64.0638 3.27972 1.63286 0
387 1 Si 64.3205 6.44967 1.61699 0
388 1 Si 61.7077 8.52575 1.61866 0
389 1 Si 66.6367 1.37156 1.60822 0
390 1 Si 67.5734 6.59564 1.61444 0
391 1 Si 68.869 3.60456 1.63323 0
392 1 Si 66.2451 176.136 1.63255 0
393 1 Si 74.4302 4.03657 1.61404 0
394 1 Si 71.7613 2.32017 1.61593 0
395 1 Si 75.0645 7.20729 1.64196 0
396 1 Si 68.963 9.51003 1.63738 0
397 1 Si 72.3242 9.20081 1.6315 0
398 1 Si 75.6431 1.09558 1.62391 0
399 1 Si 72.9801 177.276 1.61325 0
400 1 Si 171.852 36.9466 1.63663 0
401 1 Si 177.963 36.4652 1.62469 0
402 1 Si 174.938 38.0663 1.62864 0
403 1 Si 80.8079 2.30062 1.60521 0
404 1 Si 80.918 5.65906 1.63932 0
405 1 Si 78.5727 177.858 1.63589 0
406 1 Si 78.3958 7.96125 1.63663 0
407 1 Si 191.464 36.1505 1.61104 0
408 1 Si 185.683 37.1451 1.6373 0
409 1 Si 188.874 38.0457 1.61114 0
410 1 Si 83.3289 0.225674 1.62762 0
411 1 Si 86.6291 4.52018 1.63127 0
412 1 Si 84.1099 6.62877 1.64914 0
413 1 Si 86.3374 1.35394 1.62982 0
414 1 Si 79.3344 174.639 1.60573 0
415 1 Si 82.563 174.994 1.61086 0
416 1 Si 89.8694 4.98054 1.64117 0
417 1 Si 90.6443 8.05427 1.62185 0
418 1 Si 85.1544 9.70272 1.6294 0
419 1 Si 88.2686 10.1237 1.61083 0
420 1 Si 91.8645 2.44342 1.61384 0
421 1 Si 89.4119 0.324306 1.61865 0
422 1 Si 194.545 37.0738 1.61077 0
423 1 Si 95.1521 1.96589 1.63363 0
424 1 Si 96.9461 4.83854 1.63164 0
425 1 Si 96.0495 8.09369 1.63124 0
426 1 Si 93.2919 9.86796 1.62418 0
427 1 Si 96.1287 176.615 1.63438 0
428 1 Si 93.5511 174.427 1.63297 0
429 1 Si 90.345 175.257 1.62812 0
430 1 Si 99.3402 175.45 1.63654 0
431 1 Si 104.292 34.3169 1.63184 0
432 1 Si 101.733 32.3352 1.62647 0
433 1 Si 14.5531 10.6742 1.64445 0
434 1 Si 15.055 13.8415 1.62704 0
435 1 Si 12.0414 15.1533 1.60513 0
436 1 Si 139.434 35.2289 1.61657 0
437 1 Si 28.964 10.3004 1.61659 0
438 1 Si 23.2216 12.7077 1.6414 0
439 1 Si 26.7503 12.6765 1.61685 0
440 1 Si 32.198 10.4104 1.62584 0
441 1 Si 149.813 38.6423 1.63222 0
442 1 Si 153.038 38.6303 1.6276 0
443 1 Si 43.1996 9.69266 1.60158 0
444 1 Si 40.2002 10.7553 1.60565 0
445 1 Si 165.564 34.155 1.64692 0
446 1 Si 46.1882 10.7492 1.63374 0
447 1 Si 0.224561 38.3909 1.61839 0
448 1 Si 199.933 40.1675 1.62293 0
449 1 Si 203.077 41.2446 1.62782 0
450 1 Si 61.2532 11.9529 1.62675 0
451 1 Si 55.6913 12.0083 1.62913 0
452 1 Si 58.3574 13.8625 1.6279 0
453 1 Si 4.86261 35.6284 1.62117 0
454 1 Si 3.48347 38.7276 1.62144 0
455 1 Si 67.0125 12.3332 1.61082 0
456 1 Si 63.9898 13.7879 1.62663 0
457 1 Si 8.18167 35.977 1.64369 0
458 1 Si 8.08744 28.9581 1.6213 0
459 1 Si 10.921 30.4712 1.63608 0
460 1 Si 10.5904 33.7098 1.63264 0
461 1 Si 109.077 40.7322 1.6273 0
462 1 Si 105.83 40.0932 1.6119 0
463 1 Si 104.063 37.4467 1.60465 0
464 1 Si 79.0254 11.2453 1.62197 0
465 1 Si 84.3439 12.8619 1.62832 0
466 1 Si 81.2736 13.7218 1.63223 0
467 1 Si 119.849 36.9208 1.63365 0
468 1 Si 140.054 38.4979 1.63248 0
469 1 Si 143.334 38.3791 1.64067 0
470 1 Si 17.8669 15.6354 1.61316 0
471 1 Si 21.2811 15.4346 1.62555 0
472 1 Si 165.816 37.2368 1.62865 0
473 1 Si 159.633 38.1863 1.63636 0
474 1 Si 162.911 38.6468 1.60528 0
475 1 Si 33.099 13.4679 1.63776 0
476 1 Si 39.8407 14.018 1.64147 0
477 1 Si 36.2914 14.8924 1.61789 0
478 1 Si 168.868 38.439 1.62966 0
479 1 Si 179.983 38.9384 1.60801 0
480 1 Si 183.181 39.4393 1.62391 0
481 1 Si 52.4404 12.7243 1.62409 0
482 1 Si 190.665 40.7597 1.63183 0
483 1 Si 194.008 40.2516 1.62626 0
484 1 Si 73.2602 12.1632 1.6207 0
485 1 Si 68.388 15.2653 1.60678 0
486 1 Si 71.4571 14.7365 1.64778 0
487 1 Si 76.3213 12.8936 1.61129 0
488 1 Si 115.386 42.2611 1.61763 0
489 1 Si 110.026 44.0549 1.62923 0
490 1 Si 113.25 44.8034 1.61723 0
491 1 Si 121.576 39.6188 1.6084 0
492 1 Si 89.171 13.1898 1.61658 0
493 1 Si 86.6618 15.2294 1.63275 0
494 1 Si 137.859 41.197 1.63324 0
495 1 Si 92.4133 13.1028 1.63141 0
496 1 Si 144.835 41.2943 1.62638 0
497 1 Si 148.137 41.3909 1.6238 0
498 1 Si 13.0108 18.2596 1.61505 0
499 1 Si 10.6706 20.5099 1.63495 0
500 1 Si 16.2889 18.5095 1.61876 0
501 1 Si 154.763 41.3506 1.63628 0
502 1 Si 157.984 41.0387 1.63022 0
503 1 Si 29.7612 14.2609 1.63719 0
504 1 Si 23.0933 18.2271 1.63549 0
505 1 Si 29.2937 17.3659 1.62905 0
506 1 Si 26.3428 18.7326 1.614 0
507 1 Si 164.569 41.4106 1.61442 0
508 1 Si 167.824 41.4599 1.64326 0
509 1 Si 43.3405 15.4741 1.6263 0
510 1 Si 35.3154 18.0514 1.62457 0
511 1 Si 40.8471 20.4067 1.62356 0
512 1 Si 37.4256 20.4871 1.63608 0
513 1 Si 44.0213 18.7784 1.62939 0
514 1 Si 174.951 41.3842 1.62194 0
515 1 Si 178.161 41.5908 1.61612 0
516 1 Si 46.5641 14.0288 1.61116 0
517 1 Si 49.9369 14.9769 1.62807 0
518 1 Si 182.912 42.7657 1.63072 0
519 1 Si 188.805 43.4457 1.61522 0
520 1 Si 185.639 44.4982 1.64 0
521 1 Si 63.7822 17.216 1.6278 0
522 1 Si 67.026 18.2521 1.62854 0
523 1 Si 196.984 41.7808 1.63675 0
524 1 Si 76.0745 15.9757 1.62686 0
525 1 Si 78.0636 18.3138 1.61345 0
526 1 Si 81.0064 17.0605 1.6382 0
527 1 Si 5.04633 41.8279 1.63573 0
528 1 Si 8.3926 41.9739 1.6274 0
529 1 Si 9.48886 38.9563 1.63815 0
530 1 Si 0.0297936 44.3184 1.61977 0
531 1 Si 3.43085 44.8116 1.61968 0
532 1 Si 93.9988 16.0332 1.62559 0
533 1 Si 97.3499 15.971 1.61928 0
534 1 Si 121.315 42.7857 1.62435 0
535 1 Si 118.278 43.9337 1.63323 0
536 1 Si 137.198 44.6002 1.63793 0
537 1 Si 143.237 44.1286 1.62103 0
538 1 Si 140.275 45.5034 1.62078 0
539 1 Si 18.0991 21.1863 1.62516 0
540 1 Si 21.3472 20.9566 1.61529 0
541 1 Si 149.961 44.1235 1.64178 0
542 1 Si 153.221 44.2451 1.6285 0
543 1 Si 159.561 43.8096 1.62061 0
544 1 Si 162.76 43.9727 1.61579 0
545 1 Si 32.1552 18.9162 1.62238 0
546 1 Si 169.567 44.2219 1.62761 0
547 1 Si 172.951 44.0975 1.63538 0
548 1 Si 179.885 44.2503 1.63243 0
549 1 Si 57.7605 17.2286 1.61539 0
550 1 Si 50.8995 18.2069 1.62268 0
551 1 Si 54.7707 19.1167 1.62886 0
552 1 Si 60.686 18.9355 1.6094 0
553 1 Si 196.889 45.031 1.63783 0
554 1 Si 190.719 45.9966 1.62485 0
555 1 Si 193.938 46.4955 1.61321 0
556 1 Si 73.2214 17.2509 1.62063 0
557 1 Si 69.17 21.049 1.63444 0
558 1 Si 72.4835 20.2984 1.61212 0
559 1 Si 199.486 47.089 1.61355 0
560 1 Si 202.838 47.1548 1.62882 0
561 1 Si 102.799 41.2377 1.63518 0
562 1 Si 101.063 38.4818 1.59308 0
563 1 Si 107.899 46.6799 1.63608 0
564 1 Si 104.614 46.2329 1.60131 0
565 1 Si 101.955 44.3332 1.63265 0
566 1 Si 86.462 18.618 1.64102 0
567 1 Si 89.4413 20.5295 1.63179 0
568 1 Si 92.6521 19.1706 1.61718 0
569 1 Si 124.447 43.7479 1.63245 0
570 1 Si 11.3405 23.7628 1.64268 0
571 1 Si 14.1219 25.4864 1.63886 0
572 1 Si 17.1759 24.3015 1.62195 0
573 1 Si 131.498 46.0748 1.62536 0
574 1 Si 134.639 47.1155 1.63636 0
575 1 Si 27.5309 21.7003 1.61512 0
576 1 Si 30.7005 21.7284 1.61606 0
577 1 Si 40.4677 23.5915 1.61924 0
578 1 Si 35.5341 23.2409 1.63071 0
579 1 Si 37.7905 25.3616 1.63509 0
580 1 Si 145.175 46.6917 1.62366 0
581 1 Si 148.365 46.94 1.64135 0
582 1 Si 47.6307 19.8402 1.635 0
583 1 Si 48.0036 23.1365 1.63847 0
584 1 Si 42.5168 25.9269 1.63727 0
585 1 Si 45.6604 25.4314 1.60526 0
586 1 Si 154.895 47.1263 1.64089 0
587 1 Si 158.207 46.7189 1.61015 0
588 1 Si 164.178 46.8425 1.60893 0
589 1 Si 167.576 46.9519 1.62789 0
590 1 Si 174.596 47.0227 1.62305 0
591 1 Si 177.993 47.0557 1.63702 0
592 1 Si 59.5508 22.142 1.6245 0
593 1 Si 68.539 24.4681 1.6402 0
594 1 Si 61.6395 24.831 1.62453 0
595 1 Si 65.0065 25.4988 1.6147 0
596 1 Si 185.094 47.7104 1.62008 0
597 1 Si 188.296 48.104 1.62298 0
598 1 Si 75.789 20.6775 1.63974 0
599 1 Si 83.1104 19.5606 1.61818 0
600 1 Si 194.701 49.6144 1.62197 0
601 1 Si 197.877 49.8973 1.61897 0
602 1 Si 98.0764 19.2178 1.61994 0
603 1 Si 5.08361 47.9493 1.63036 0
604 1 Si 204.494 50.1263 1.63042 0
605 1 Si 3.23694 50.838 1.62741 0
606 1 Si 8.432 48.7188 1.62035 0
607 1 Si 11.1774 43.9175 1.63927 0
608 1 Si 11.3659 47.1855 1.62641 0
609 1 Si 8.85812 25.8103 1.62731 0
610 1 Si 108.462 50.0078 1.63026 0
611 1 Si 105.401 51.2042 1.61986 0
612 1 Si 103.057 48.997 1.60625 0
613 1 Si 117.995 47.1576 1.60777 0
614 1 Si 114.815 47.7136 1.61264 0
615 1 Si 22.5758 23.9351 1.62458 0
616 1 Si 25.7761 24.3905 1.64502 0
617 1 Si 125.385 46.7719 1.61138 0
618 1 Si 123.469 49.378 1.61499 0
619 1 Si 120.063 49.6591 1.63138 0
620 1 Si 128.452 47.8477 1.6086 0
621 1 Si 32.469 24.3836 1.61592 0
622 1 Si 140.288 48.6904 1.61568 0
623 1 Si 143.395 49.2943 1.62823 0
624 1 Si 56.0875 22.2783 1.6206 0
625 1 Si 50.747 24.9081 1.61762 0
626 1 Si 54.0161 25.0323 1.63765 0
627 1 Si 149.803 49.8804 1.62244 0
628 1 Si 153.128 49.9825 1.61838 0
629 1 Si 161.141 48.2457 1.63753 0
630 1 Si 169.307 49.7738 1.62568 0
631 1 Si 172.719 49.8088 1.62539 0
632 1 Si 81.0631 22.3986 1.64226 0
633 1 Si 77.595 23.3053 1.63527 0
634 1 Si 179.451 50.0447 1.63672 0
635 1 Si 182.762 50.1069 1.64131 0
636 1 Si 83.0033 24.9949 1.61743 0
637 1 Si 89.3546 24.0085 1.63258 0
638 1 Si 86.3283 25.551 1.63151 0
639 1 Si 95.3608 21.1327 1.61912 0
640 1 Si 189.236 51.028 1.62825 0
641 1 Si 192.316 51.6994 1.61851 0
642 1 Si 199.359 52.702 1.63595 0
643 1 Si 202.639 52.8025 1.63884 0
644 1 Si 13.8058 28.7507 1.63076 0
645 1 Si 20.0147 25.9138 1.62187 0
646 1 Si 114.278 50.9223 1.6259 0
647 1 Si 111.102 52.2109 1.63894 0
648 1 Si 27.4845 27.1274 1.61971 0
649 1 Si 30.7743 27.1709 1.62196 0
650 1 Si 37.5407 28.5348 1.61729 0
651 1 Si 40.7667 28.6605 1.6277 0
652 1 Si 126.538 50.6175 1.63398 0
653 1 Si 134.829 50.5575 1.60661 0
654 1 Si 138.029 50.8906 1.62262 0
655 1 Si 46.6304 28.4991 1.62161 0
656 1 Si 49.7135 27.9516 1.61858 0
657 1 Si 144.707 52.1476 1.63777 0
658 1 Si 147.941 52.6092 1.62207 0
659 1 Si 75.3224 25.9623 1.61055 0
660 1 Si 71.675 26.6962 1.63329 0
661 1 Si 160.859 51.4074 1.63863 0
662 1 Si 154.475 53.0231 1.62902 0
663 1 Si 157.847 52.9432 1.61981 0
664 1 Si 80.9651 27.5831 1.62494 0
665 1 Si 77.7355 28.2868 1.62674 0
666 1 Si 164.011 52.5902 1.61658 0
667 1 Si 167.406 52.5029 1.63617 0
668 1 Si 95.2363 24.4723 1.62002 0
669 1 Si 92.2819 25.9393 1.60969 0
670 1 Si 174.351 52.7351 1.62912 0
671 1 Si 177.667 52.9182 1.62874 0
672 1 Si 97.5968 26.8468 1.61221 0
673 1 Si 183.884 53.1769 1.62782 0
674 1 Si 187.049 53.2737 1.61318 0
675 1 Si 191.842 54.8121 1.63016 0
676 1 Si 197.466 55.2868 1.62932 0
677 1 Si 194.5 56.3971 1.62865 0
678 1 Si 20.0691 29.1183 1.63025 0
679 1 Si 16.8613 30.0702 1.62276 0
680 1 Si 4.75175 54.0493 1.61281 0
681 1 Si 203.993 55.7219 1.60341 0
682 1 Si 1.47409 58.191 1.64687 0
683 1 Si 4.49286 57.5112 1.63387 0
684 1 Si 117.53 51.8522 1.63078 0
685 1 Si 22.915 30.9184 1.62009 0
686 1 Si 26.1588 30.0774 1.62328 0
687 1 Si 31.9079 30.229 1.62426 0
688 1 Si 35.2173 30.9164 1.64492 0
689 1 Si 127.254 53.8656 1.62743 0
690 1 Si 133.618 53.7797 1.6332 0
691 1 Si 130.419 55.1676 1.62344 0
692 1 Si 41.9002 31.6019 1.62911 0
693 1 Si 45.1292 31.3424 1.62829 0
694 1 Si 139.117 53.8501 1.6198 0
695 1 Si 142.306 54.288 1.64678 0
696 1 Si 54.5771 28.397 1.62889 0
697 1 Si 51.8035 30.3316 1.62633 0
698 1 Si 149.104 55.762 1.62921 0
699 1 Si 152.612 55.9279 1.61718 0
700 1 Si 60.5078 27.9394 1.60846 0
701 1 Si 57.6031 29.7919 1.65263 0
702 1 Si 63.7213 28.5153 1.60979 0
703 1 Si 159.331 55.7269 1.62074 0
704 1 Si 162.5 55.3602 1.61315 0
705 1 Si 71.2486 30.1387 1.62776 0
706 1 Si 65.2145 31.3678 1.63366 0
707 1 Si 68.4355 31.955 1.6166 0
708 1 Si 169.221 55.3111 1.62307 0
709 1 Si 172.568 55.5476 1.64676 0
710 1 Si 179.035 56.0179 1.62101 0
711 1 Si 182.288 56.0678 1.6357 0
712 1 Si 86.3865 28.7844 1.63173 0
713 1 Si 83.2879 29.7514 1.6259 0
714 1 Si 188.855 55.8521 1.61478 0
715 1 Si 93.4951 29.128 1.62741 0
716 1 Si 88.7946 30.9668 1.63276 0
717 1 Si 91.9476 31.963 1.63576 0
718 1 Si 7.99211 54.4015 1.63277 0
719 1 Si 9.75049 51.7404 1.62333 0
720 1 Si 110.387 55.6022 1.62798 0
721 1 Si 107.13 56.5394 1.63192 0
722 1 Si 104.609 54.2996 1.62937 0
723 1 Si 16.6688 33.2079 1.63126 0
724 1 Si 13.7007 34.4137 1.60565 0
725 1 Si 199.025 57.9431 1.63564 0
726 1 Si 202.034 58.1391 1.63269 0
727 1 Si 118.308 54.9647 1.63626 0
728 1 Si 116 57.2969 1.60639 0
729 1 Si 112.674 58.1903 1.64255 0
730 1 Si 19.3005 35.1441 1.63303 0
731 1 Si 22.4544 34.1794 1.61769 0
732 1 Si 121.293 56.3598 1.61517 0
733 1 Si 124.775 56.2016 1.62885 0
734 1 Si 28.9777 31.7921 1.62327 0
735 1 Si 36.5224 33.9986 1.62824 0
736 1 Si 39.9192 34.2133 1.62168 0
737 1 Si 136.417 55.6543 1.61952 0
738 1 Si 146.512 58.086 1.63181 0
739 1 Si 143.35 57.2355 1.62831 0
740 1 Si 46.9125 34.0139 1.62392 0
741 1 Si 50.2154 33.3303 1.62805 0
742 1 Si 154.601 58.7654 1.63397 0
743 1 Si 158.133 58.6782 1.62249 0
744 1 Si 164.154 58.017 1.61128 0
745 1 Si 167.396 58.048 1.63887 0
746 1 Si 177.464 59.0009 1.63719 0
747 1 Si 174.13 58.5107 1.64056 0
748 1 Si 73.8227 32.3252 1.6287 0
749 1 Si 76.9654 31.4713 1.63469 0
750 1 Si 184.051 58.8077 1.60723 0
751 1 Si 187.191 58.4894 1.61482 0
752 1 Si 96.6854 30.0165 1.61107 0
753 1 Si 193.872 59.448 1.62087 0
754 1 Si 198.903 61.056 1.64851 0
755 1 Si 195.973 61.701 1.62759 0
756 1 Si 118.964 58.6728 1.61558 0
757 1 Si 126.621 58.9752 1.61564 0
758 1 Si 129.922 58.5047 1.61524 0
759 1 Si 14.7208 37.3335 1.60448 0
760 1 Si 17.7715 37.9695 1.59855 0
761 1 Si 28.4391 34.9353 1.63059 0
762 1 Si 25.2566 35.916 1.63193 0
763 1 Si 145.565 61.2801 1.62849 0
764 1 Si 153.103 61.7701 1.62809 0
765 1 Si 147.086 64.1544 1.63254 0
766 1 Si 150.367 63.7581 1.60706 0
767 1 Si 31.0264 36.9547 1.63212 0
768 1 Si 34.4835 36.7103 1.64944 0
769 1 Si 178.888 62.1793 1.61589 0
770 1 Si 184.109 62.0584 1.6404 0
771 1 Si 181.763 64.1583 1.63716 0
772 1 Si 41.6923 37.0253 1.63774 0
773 1 Si 45.1123 36.8676 1.63897 0
774 1 Si 57.4933 33.1754 1.63697 0
775 1 Si 51.9081 36.1116 1.62787 0
776 1 Si 55.1511 35.5999 1.61511 0
777 1 Si 202.698 61.1746 1.62858 0
778 1 Si 1.18824 61.4089 1.60016 0
779 1 Si 5.5402 60.8564 1.64215 0
780 1 Si 9.42728 57.3263 1.62449 0
781 1 Si 8.65273 60.4551 1.62885 0
782 1 Si 63.4185 34.0841 1.61662 0
783 1 Si 60.2888 34.7879 1.63721 0
784 1 Si 106.241 59.7441 1.628 0
785 1 Si 102.98 60.2512 1.62802 0
786 1 Si 101.288 54.6641 1.63513 0
787 1 Si 100.675 57.8868 1.62781 0
788 1 Si 111.531 61.5175 1.63025 0
789 1 Si 108.247 62.4364 1.62756 0
790 1 Si 68.3659 35.2385 1.62153 0
791 1 Si 65.4468 36.5802 1.62224 0
792 1 Si 119.282 61.841 1.63518 0
793 1 Si 116.809 64.0706 1.62758 0
794 1 Si 113.449 64.2999 1.63423 0
795 1 Si 73.6337 35.6275 1.63035 0
796 1 Si 70.8157 37.3068 1.63106 0
797 1 Si 125.532 62.1069 1.63985 0
798 1 Si 122.378 62.8909 1.60662 0
799 1 Si 82.3439 32.7793 1.62862 0
800 1 Si 79.3363 33.7599 1.61782 0
801 1 Si 137.41 58.7523 1.64123 0
802 1 Si 131.953 61.2788 1.63859 0
803 1 Si 135.314 61.3134 1.62379 0
804 1 Si 87.5748 33.8054 1.59496 0
805 1 Si 84.6488 34.8451 1.6151 0
806 1 Si 140.706 59.1184 1.62544 0
807 1 Si 98.593 32.8678 1.63978 0
808 1 Si 161.397 59.7904 1.59736 0
809 1 Si 12.585 39.5172 1.61774 0
810 1 Si 168.947 60.8719 1.62502 0
811 1 Si 172.199 61.1641 1.63513 0
812 1 Si 25.2581 39.0989 1.63283 0
813 1 Si 17.1254 41.1425 1.64749 0
814 1 Si 22.6908 41.3112 1.59602 0
815 1 Si 19.7391 42.9612 1.63631 0
816 1 Si 28.6052 39.2305 1.63259 0
817 1 Si 188.492 61.3028 1.60872 0
818 1 Si 191.538 61.4686 1.64568 0
819 1 Si 39.6242 39.6475 1.6101 0
820 1 Si 36.3665 39.4303 1.61172 0
821 1 Si 47.0315 39.5825 1.64051 0
822 1 Si 50.3547 39.1294 1.63251 0
823 1 Si 200.728 63.5804 1.61686 0
824 1 Si 79.3347 37.0032 1.639 0
825 1 Si 76.1897 37.6272 1.62501 0
826 1 Si 130.713 64.4424 1.63356 0
827 1 Si 127.499 64.8307 1.63453 0
828 1 Si 118.677 66.6953 1.60701 0
829 1 Si 121.724 65.9922 1.61176 0
830 1 Si 93.3506 35.0936 1.59557 0
831 1 Si 88.6614 36.6885 1.60966 0
832 1 Si 91.5338 37.7239 1.63063 0
833 1 Si 98.5966 36.252 1.63361 0
834 1 Si 95.6899 37.5574 1.63851 0
835 1 Si 142.328 61.8185 1.62101 0
836 1 Si 137.014 64.1599 1.62965 0
837 1 Si 140.286 64.2812 1.62396 0
838 1 Si 163.816 62.0701 1.63331 0
839 1 Si 155.355 64.0029 1.63436 0
840 1 Si 158.411 64.4787 1.61232 0
841 1 Si 161.467 64.0345 1.6391 0
842 1 Si 14.0385 42.2877 1.58391 0
843 1 Si 166.868 63.3262 1.63092 0
844 1 Si 173.507 64.1373 1.64836 0
845 1 Si 176.712 64.5554 1.6176 0
846 1 Si 39.9305 42.9254 1.63506 0
847 1 Si 45.8091 42.6832 1.61423 0
848 1 Si 42.8679 44.1645 1.64197 0
849 1 Si 56.4669 38.579 1.62389 0
850 1 Si 55.3806 41.6337 1.63426 0
851 1 Si 52.1557 41.9057 1.62377 0
852 1 Si 59.5232 37.8877 1.63366 0
853 1 Si 186.735 63.8943 1.60211 0
854 1 Si 64.5396 39.6644 1.61674 0
855 1 Si 61.4332 40.348 1.61759 0
856 1 Si 192.409 64.4288 1.61557 0
857 1 Si 195.446 64.6838 1.61301 0
858 1 Si 70.6308 40.604 1.60668 0
859 1 Si 65.5575 42.6937 1.628 0