LAMMPS data file via write_data, version 23 Jun 2022, timestep = 7075

15552 atoms
2 atom types

4.301711700890001 200.01078630372703 xlo xhi
5.253454081388032 172.05175362031156 ylo yhi
-100 100 zlo zhi

Masses

1 28.085
2 15.999

Atoms # full

9317 1 2 0 7.515234695106081 6.36763720537719 -2.1073190897240353 0 0 0
6856 1 1 0 14.74664305660177 6.406622765586577 -1.6321885596203698 0 0 0
9676 1 2 0 16.35393621021864 6.364878709862852 -2.0760292802255 0 0 0
6860 1 1 0 17.953679081025367 6.440829145858696 -1.6257416345370397 0 0 0
9681 1 2 0 19.00366082636981 7.65593492127913 -2.062669779693263 0 0 0
6872 1 1 0 24.804752022036986 5.514182180141072 -1.6220931995545242 0 0 0
9696 1 2 0 24.24835399825004 6.972874163128535 -2.075325725528778 0 0 0
9707 1 2 0 28.894871879459554 5.7968281978198615 -2.076876478998799 0 0 0
6875 1 1 0 29.96057750701452 6.944230228653314 -1.6265666740094809 0 0 0
9708 1 2 0 31.45601957358087 6.503301365062201 -2.15744623046737 0 0 0
6883 1 1 0 32.90175856464757 5.936924931278583 -1.6184398128222321 0 0 0
9720 1 2 0 34.184557396956876 6.818956270305814 -2.0940746128166934 0 0 0
6882 1 1 0 35.669510939815 7.280525430749811 -1.6248926045809875 0 0 0
9721 1 2 0 36.79266445162463 6.204932449445026 -2.074294592938022 0 0 0
6884 1 1 0 38.10914310469271 5.384326981338356 -1.6086339021654426 0 0 0
9724 1 2 0 39.44298138894323 6.1378822024904185 -2.168071676476165 0 0 0
6891 1 1 0 40.83796750232535 6.775824283251439 -1.6312257348490087 0 0 0
9734 1 2 0 42.078175380166336 5.915609924103386 -2.1875409020560204 0 0 0
9744 1 2 0 44.748544173880944 5.856613010699808 -1.92368620594931 0 0 0
6897 1 1 0 46.34412536240083 5.8519770547599705 -1.6070647087278043 0 0 0
9742 1 2 0 47.10322720225138 7.189607551891234 -2.1519248926188017 0 0 0
6903 1 1 0 52.96730932411969 7.068341519101544 -1.6309339515363444 0 0 0
9753 1 2 0 52.546434968385114 5.512975859631105 -2.0031127370270294 0 0 0
9754 1 2 0 54.55233105974507 7.230904097093288 -2.11563252631544 0 0 0
9763 1 2 0 57.46600828689225 6.76477857213644 -2.0682855583554676 0 0 0
6908 1 1 0 56.094770700374234 7.582786836439765 -1.630669182020068 0 0 0
6912 1 1 0 58.96872970832041 6.226379523824464 -1.6360273612731742 0 0 0
9770 1 2 0 60.40126332607552 6.845199000422301 -2.156314981034618 0 0 0
6918 1 1 0 61.774073466752306 7.569563484690896 -1.61434562820088 0 0 0
9779 1 2 0 63.30746686869494 7.39666952712931 -2.159278984377086 0 0 0
6920 1 1 0 64.8548548561635 7.556361904641018 -1.6375789105477698 0 0 0
9783 1 2 0 65.69313750421591 6.239159298823351 -2.102424857800493 0 0 0
9789 1 2 0 68.2342084841044 5.5313756589764465 -2.0280664550491947 0 0 0
6924 1 1 0 69.70892208999031 6.1664135137275675 -1.6272210746470064 0 0 0
9798 1 2 0 74.69424727137691 6.510947202947646 -2.0622687721573323 0 0 0
9799 1 2 0 76.65365758984174 7.466806342240561 -2.064507285922889 0 0 0
6935 1 1 0 78.18182193621423 7.2078673816612495 -1.6194247694174706 0 0 0
9806 1 2 0 79.04941698200687 5.944551747154758 -2.147301161546662 0 0 0
6944 1 1 0 84.48856316571809 6.672112928046944 -1.6206692683252955 0 0 0
9820 1 2 0 83.86776080028693 5.274328313881391 -2.102448437528336 0 0 0
9821 1 2 0 85.9899453320926 7.014748880394041 -2.0476243388927777 0 0 0
6946 1 1 0 87.52277665816096 6.788234211911887 -1.6167705618336672 0 0 0
9824 1 2 0 87.70883341318488 5.257514641965023 -2.13053343356246 0 0 0
6952 1 1 0 92.54120912592056 5.3949213548740245 -1.6073686877922175 0 0 0
9831 1 2 0 92.75146631990997 6.969598391582608 -2.1135394368097433 0 0 0
6962 1 1 0 98.23360516365408 7.4156690122481494 -1.5968757278623669 0 0 0
9849 1 2 0 97.86426020395068 5.924996530798675 -2.1449383327743305 0 0 0
9167 1 2 0 99.81122790723377 7.59043683930942 -1.9193680476705952 0 0 0
9314 1 2 0 5.2585660461309205 7.873669425524825 -2.0488607540339467 0 0 0
6620 1 1 0 6.816320782843197 7.738168830555297 -1.637456692883675 0 0 0
9316 1 2 0 7.625355169768851 8.994501348884597 -2.188805969563265 0 0 0
9333 1 2 0 12.589613619880117 9.944792577115532 -2.142138240500849 0 0 0
6857 1 1 0 14.097185706538868 9.515371397146547 -1.6288031104436493 0 0 0
9674 1 2 0 14.33088077992604 7.944437301167126 -2.0696863977064184 0 0 0
6861 1 1 0 20.275577201374915 8.640519210318637 -1.6303902494286866 0 0 0
9684 1 2 0 21.836921875841696 8.272322789420262 -2.0523417565330013 0 0 0
6868 1 1 0 23.43700177288299 8.314780533446712 -1.6222718905096745 0 0 0
9695 1 2 0 24.45840490198238 9.503459493655331 -2.1492359655792854 0 0 0
9698 1 2 0 27.20804448944605 10.12209021969577 -2.0734999453813336 0 0 0
9705 1 2 0 29.38651896852251 8.40464600797656 -2.109821133898773 0 0 0
6874 1 1 0 28.7819936530804 9.857792667077453 -1.6310890072403041 0 0 0
9712 1 2 0 36.10106718923931 8.741922890774553 -2.1805630491392884 0 0 0
9732 1 2 0 41.278633075162354 8.2681804898453 -2.0752278313057646 0 0 0
6890 1 1 0 41.943491363686384 9.681972029616565 -1.6193428656650846 0 0 0
9733 1 2 0 43.49242630330711 9.932571924408427 -2.112817566526616 0 0 0
9736 1 2 0 46.32988431033131 9.705721677818183 -2.0610529934351156 0 0 0
6896 1 1 0 47.559343561605964 8.681105944550456 -1.633642460778228 0 0 0
9743 1 2 0 49.111911352195946 9.039703025918337 -2.100885311847269 0 0 0
6900 1 1 0 50.68790923002602 9.313151250957292 -1.6299125063824609 0 0 0
9749 1 2 0 51.83626411925664 8.197726714427837 -2.1299594232758667 0 0 0
9762 1 2 0 56.49759668749473 9.07276039442428 -2.1373694041091524 0 0 0
9765 1 2 0 58.89858065378951 10.140450758830399 -2.070284114342609 0 0 0
9775 1 2 0 61.40404222978431 9.090990748914475 -2.0010282829681185 0 0 0
9780 1 2 0 65.6158538713283 8.949373819765652 -2.0698244618585013 0 0 0
6919 1 1 0 66.7642570992634 10.03067677901745 -1.6044346786539339 0 0 0
9787 1 2 0 70.00833358463673 7.759711947869137 -2.0840331970258408 0 0 0
9782 1 2 0 68.2458336651288 9.469841726194428 -1.9664033201334343 0 0 0
6923 1 1 0 69.83905190742291 9.379057140043376 -1.601586213443431 0 0 0
9797 1 2 0 74.8356666047629 9.557668220477742 -2.141021253921237 0 0 0
6929 1 1 0 75.18930693980391 8.029421628682545 -1.5994456193047448 0 0 0
6936 1 1 0 79.81424075354656 9.704325849515413 -1.6469797296170492 0 0 0
9805 1 2 0 78.8683329325174 8.53940971365034 -2.184711553722332 0 0 0
9808 1 2 0 81.26182900759794 9.264850045286984 -2.154607773659407 0 0 0
6941 1 1 0 82.74458938342842 9.060662572723558 -1.6198530946997567 0 0 0
9816 1 2 0 83.510576681984 7.793477958821213 -2.1993776113898273 0 0 0
9823 1 2 0 88.29598101275403 8.108697768244228 -2.159887133470614 0 0 0
6947 1 1 0 88.62021093999572 9.608077108671367 -1.627821784241926 0 0 0
9830 1 2 0 92.4450291222317 9.765466357744193 -2.1663944110455566 0 0 0
6950 1 1 0 93.302775275455 8.466328072364405 -1.6510838305951363 0 0 0
9832 1 2 0 94.7909833279325 8.96736346326054 -2.1351864971954084 0 0 0
6957 1 1 0 96.15342522175273 9.730083315647684 -1.6183981301976929 0 0 0
9842 1 2 0 97.35689335922714 8.712639242710784 -2.0691013915544563 0 0 0
6531 1 1 0 101.14225622416869 8.46232014425288 -1.6082902691041485 0 0 0
9165 1 2 0 100.66737951734925 9.951947738446073 -2.12550078619251 0 0 0
6621 1 1 0 5.593663794170099 12.288844130139465 -1.6122014170676426 0 0 0
6622 1 1 0 8.113309760156795 10.425553972923913 -1.6508941016335106 0 0 0
9318 1 2 0 6.827163164850851 11.328200338403924 -2.145541867932235 0 0 0
6630 1 1 0 11.201707102579244 10.62175469151448 -1.5912697793548152 0 0 0
9321 1 2 0 9.670161880704274 10.458291862741351 -2.1586817727802274 0 0 0
9331 1 2 0 11.29528968064719 12.207131227555278 -1.8970511365470313 0 0 0
9677 1 2 0 15.272396451452694 10.603588287038228 -2.065338538051451 0 0 0
6863 1 1 0 16.298831315149684 11.829894860913969 -1.6295253466705202 0 0 0
9685 1 2 0 17.858797452262944 11.658828192579824 -2.112497771999178 0 0 0
9683 1 2 0 19.998132271955534 10.177594255198274 -2.1430920838580505 0 0 0
6862 1 1 0 19.4278205115412 11.628806573828989 -1.6308999179015233 0 0 0
9697 1 2 0 25.206130838407095 12.025345021873228 -2.0664754887560166 0 0 0
6869 1 1 0 25.660503022936584 10.511304379358327 -1.6262935497696507 0 0 0
9706 1 2 0 29.82586473446557 11.022116622361915 -2.1495906344692486 0 0 0
6887 1 1 0 30.837486425067855 12.210632556180075 -1.632388310686399 0 0 0
9714 1 2 0 32.40090903609432 12.095990565516514 -2.147203665927142 0 0 0
6878 1 1 0 33.9567332853104 12.15814883057978 -1.6155166990796777 0 0 0
9710 1 2 0 35.081767977583084 11.086568688686478 -2.1282096358345157 0 0 0
6877 1 1 0 36.40065972026497 10.246986998591906 -1.645376859948034 0 0 0
9711 1 2 0 37.88028067138674 10.77342009984652 -2.124192584946878 0 0 0
6879 1 1 0 39.34539795990092 11.33248066708974 -1.6305978756326052 0 0 0
9716 1 2 0 40.71285353823895 10.615870782245922 -2.164474284779319 0 0 0
6892 1 1 0 44.95690504225842 10.52593119001302 -1.6374058159663765 0 0 0
9735 1 2 0 45.063276596579065 12.080614304267623 -2.1503156657016604 0 0 0
9748 1 2 0 51.10768576290573 10.871980014839584 -2.029960273471855 0 0 0
6901 1 1 0 51.07444082707683 12.482214505567015 -1.6269571337418334 0 0 0
9764 1 2 0 56.730024458754194 11.746157014241557 -2.1691972285136933 0 0 0
6909 1 1 0 57.35191552778531 10.350160142758536 -1.6358429020590743 0 0 0
6915 1 1 0 60.43741705617836 10.30426083875753 -1.6035052675873664 0 0 0
9774 1 2 0 61.017724561715525 11.69602139519411 -2.15144642276151 0 0 0
9781 1 2 0 66.78772011516689 11.574208984724311 -2.1602403434413877 0 0 0
9788 1 2 0 70.52584641998719 10.8715231060494 -2.0601133156945513 0 0 0
6926 1 1 0 71.50023385807198 12.217923497293368 -1.6299024817306238 0 0 0
9793 1 2 0 72.91455698318782 11.562429601461904 -2.156551412302479 0 0 0
6930 1 1 0 74.39581872935159 11.081701593217128 -1.6518135491860606 0 0 0
9800 1 2 0 75.26846780432653 12.391892556800293 -2.1299729344844067 0 0 0
9807 1 2 0 79.4272673129496 11.158150265411736 -2.1882074303986543 0 0 0
6937 1 1 0 79.0650410321685 12.608966075511649 -1.605192717692705 0 0 0
9815 1 2 0 83.58722851264307 10.333465047725754 -2.055131483334886 0 0 0
6942 1 1 0 83.87364618124239 11.835330640545278 -1.631868363755113 0 0 0
9818 1 2 0 85.33901178847809 12.163812338241256 -2.1625187828364476 0 0 0
6948 1 1 0 86.84214208374414 12.090434565394931 -1.6212139235439282 0 0 0
9825 1 2 0 87.5499517476945 10.723084428196502 -2.0918696504001746 0 0 0
9826 1 2 0 90.0503136223936 10.171252967698091 -2.091235179932015 0 0 0
6951 1 1 0 91.41019372747293 10.906746786198264 -1.6195137329086298 0 0 0
9833 1 2 0 91.3773266032782 12.459450858184994 -2.1396839870013946 0 0 0
9841 1 2 0 96.36725193342878 11.329621707689066 -1.977223205524258 0 0 0
9168 1 2 0 98.73464538952969 12.14787307303262 -2.10512038932895 0 0 0
6532 1 1 0 100.15193841162909 11.439578925842191 -1.6324195332428022 0 0 0
9163 1 2 0 101.35935618487257 12.371778115171137 -2.169197311520026 0 0 0
9320 1 2 0 6.3700807872705285 13.66349556616562 -1.9948088224116276 0 0 0
6628 1 1 0 7.6914584465710005 14.522586106556561 -1.638705040894558 0 0 0
9329 1 2 0 9.10754601228783 13.88842700425346 -2.1321809823722324 0 0 0
6629 1 1 0 10.627093934359246 13.645439682594203 -1.6072735731660104 0 0 0
9332 1 2 0 11.690993003646039 14.71697128426286 -2.179454452165422 0 0 0
9687 1 2 0 15.954195837865605 13.348456556479945 -2.1651157550153584 0 0 0
6969 1 1 0 15.762345992190625 14.888306355419232 -1.630497131591787 0 0 0
9686 1 2 0 20.339481465141485 12.93513440682735 -2.0588712928983743 0 0 0
6870 1 1 0 21.447657090995303 14.083052533540533 -1.62474672600336 0 0 0
9699 1 2 0 22.96876881701256 13.696017457865022 -2.154160619486995 0 0 0
6871 1 1 0 24.51436030051587 13.445005049442143 -1.623585709560148 0 0 0
9701 1 2 0 25.503926675352506 14.665170266301665 -2.074979789985517 0 0 0
9728 1 2 0 30.170258202226222 13.64265978998677 -2.058716161307285 0 0 0
9713 1 2 0 34.74465510206742 13.52167523905722 -2.027284980358343 0 0 0
6881 1 1 0 35.91499149791257 14.566731567331411 -1.613145513189278 0 0 0
9717 1 2 0 37.44234921982756 14.316922659571121 -2.0862472110761088 0 0 0
6880 1 1 0 38.99778547803467 14.366583582746143 -1.6186753506859335 0 0 0
9715 1 2 0 39.508930271976396 12.890825764935022 -2.0456178500886555 0 0 0
6893 1 1 0 45.47786800968738 13.57288012696183 -1.6197013459425065 0 0 0
9737 1 2 0 44.53864270791422 14.82843586295554 -2.096848920976639 0 0 0
9738 1 2 0 47.035728990331535 13.76827187070994 -2.0450238285167948 0 0 0
6902 1 1 0 48.52184961837615 14.25871728413525 -1.6133758779407636 0 0 0
9750 1 2 0 49.677876705674045 13.204894321163001 -2.086823857677294 0 0 0
9751 1 2 0 52.233017740394196 13.55564416276326 -2.1457435861765513 0 0 0
6911 1 1 0 53.494218679807574 14.506697857535057 -1.639841374511727 0 0 0
9766 1 2 0 54.794038945136 13.677185509894588 -2.1484246238172227 0 0 0
6910 1 1 0 56.238186526448274 13.188014169162912 -1.6221589955573679 0 0 0
9767 1 2 0 57.30886081539348 14.327519745261982 -2.023105394076754 0 0 0
9776 1 2 0 59.92847342984321 14.041331737890788 -2.127281741301107 0 0 0
6917 1 1 0 58.72610552408287 14.971695554312003 -1.6168609562126153 0 0 0
6916 1 1 0 61.20654048018136 13.203878411041405 -1.6427237950868607 0 0 0
9777 1 2 0 62.57111844025202 13.835010669652746 -2.201978402583911 0 0 0
6922 1 1 0 63.94392583348113 14.42036148254062 -1.6103185192944838 0 0 0
9784 1 2 0 65.16538905206127 13.445990589463847 -1.9506025156715112 0 0 0
6921 1 1 0 66.70263694596314 13.113843053450568 -1.601654364996747 0 0 0
9785 1 2 0 67.54243864546544 14.424803806945071 -2.128002138469647 0 0 0
9792 1 2 0 71.52953744209736 13.912893802488187 -1.9788113694438643 0 0 0
6938 1 1 0 76.20510874774331 13.632545883945838 -1.5998030814999757 0 0 0
9809 1 2 0 77.611341924963 13.018077650989978 -2.104672922502437 0 0 0
9810 1 2 0 80.22141109964322 13.66156302296459 -1.9712594561043288 0 0 0
6943 1 1 0 81.75921144482304 13.931916992989736 -1.6094596933197296 0 0 0
9817 1 2 0 82.71603322513084 12.782955490146 -2.1916422347006197 0 0 0
9827 1 2 0 87.5268653392327 13.445605376575477 -2.1235548031822424 0 0 0
9845 1 2 0 89.65636345719774 14.665904963979449 -2.0580758746351138 0 0 0
6992 1 1 0 88.10953039425732 14.854068743271855 -1.613289905767478 0 0 0
6959 1 1 0 91.07549917044471 13.98795546809115 -1.6342701115857357 0 0 0
9843 1 2 0 96.60025552558258 14.181151348374717 -2.1242655159936175 0 0 0
6958 1 1 0 97.23894242566868 12.696284292205226 -1.6207906346149759 0 0 0
9330 1 2 0 7.494909666132022 16.043476007233433 -2.1435318375181676 0 0 0
6669 1 1 0 6.988294941165188 17.496414825468886 -1.6401217750411867 0 0 0
6692 1 1 0 12.807250567773954 15.738762347087192 -1.6155859636661236 0 0 0
9428 1 2 0 12.352945664427669 17.220249233404978 -2.0422529021967737 0 0 0
9429 1 2 0 14.302325446995638 15.393183062563887 -2.1206659203533778 0 0 0
9859 1 2 0 16.864636162394028 16.0270342972571 -2.024824081516307 0 0 0
6974 1 1 0 17.484525500044494 17.491241307930924 -1.6264434713397289 0 0 0
9700 1 2 0 21.021167019690562 15.622656076749553 -2.0608266659669257 0 0 0
6973 1 1 0 20.602394039355058 17.16850056215098 -1.637524085667682 0 0 0
9865 1 2 0 19.058610310189867 17.513871783798134 -2.1284815864726645 0 0 0
9871 1 2 0 26.07038758137588 17.277813455385978 -2.14398562900403 0 0 0
6977 1 1 0 26.587759120059903 15.804905524852739 -1.63344821315512 0 0 0
9869 1 2 0 28.10436287615607 15.42296820125187 -2.1393981022431596 0 0 0
6976 1 1 0 29.638584642579442 15.128300187819955 -1.6332032685392137 0 0 0
9870 1 2 0 30.70162615051016 16.25582486755976 -2.1725273133230134 0 0 0
6981 1 1 0 31.7534719927386 17.379213872354537 -1.6169361801064392 0 0 0
9875 1 2 0 33.29815404969537 17.277694530978042 -2.1107437562628033 0 0 0
9719 1 2 0 35.501162183748185 16.020942017989267 -2.173866654905835 0 0 0
6980 1 1 0 34.84861699304308 17.393736446772454 -1.6317027587365487 0 0 0
9718 1 2 0 39.839146807732746 15.660922556349172 -2.13783615352014 0 0 0
6894 1 1 0 40.8285831298277 16.858874343778243 -1.6277382885177423 0 0 0
9739 1 2 0 42.34391488032948 16.530954115490072 -2.1659645932129585 0 0 0
6895 1 1 0 43.86892082940353 16.25222804899243 -1.6309717745428005 0 0 0
9752 1 2 0 48.6692483046811 15.798714281794505 -2.132217546347559 0 0 0
7003 1 1 0 48.649515886847496 17.34779503330191 -1.624979451395282 0 0 0
9768 1 2 0 53.81928363536698 16.07956580834114 -2.078908862684535 0 0 0
9778 1 2 0 59.000364473366865 16.456487154462135 -2.1849980222007273 0 0 0
9786 1 2 0 64.21776257267085 15.916091052048872 -2.131950189884065 0 0 0
7011 1 1 0 64.15269096385522 17.43287820950495 -1.6065307724317859 0 0 0
9795 1 2 0 67.71212087696428 17.283754817821652 -2.156420539455462 0 0 0
6927 1 1 0 68.27434902063389 15.819573129849106 -1.6528337060756255 0 0 0
9794 1 2 0 69.81244995457413 15.739387252809207 -2.1589236878323503 0 0 0
6928 1 1 0 71.35175168832278 15.613016494057913 -1.6325103768583453 0 0 0
9796 1 2 0 71.92073549071513 17.216168363094287 -2.0539364579151482 0 0 0
7014 1 1 0 77.39890788956558 16.492955071181687 -1.6402329351182436 0 0 0
9811 1 2 0 76.70006152178055 15.101702962588112 -2.1642523676464998 0 0 0
9924 1 2 0 78.9195228282445 16.93723005729625 -2.090794228800342 0 0 0
9819 1 2 0 82.52845539542328 15.244482532583293 -2.1087836780841855 0 0 0
9929 1 2 0 81.72303237004492 17.342080664504806 -2.1764892011389354 0 0 0
7017 1 1 0 83.0980240518102 16.672141375207868 -1.6181874535823368 0 0 0
9928 1 2 0 84.5873523720254 17.00565204250809 -2.169745168898003 0 0 0
9892 1 2 0 87.15192982949465 16.046736247297424 -2.1629070694790857 0 0 0
7018 1 1 0 86.1200283329592 17.196932992831094 -1.6485283742135517 0 0 0
9844 1 2 0 92.10320927843523 15.131695646096457 -2.1546149341594005 0 0 0
6961 1 1 0 92.84766922589343 16.484944687347124 -1.627875152247197 0 0 0
9846 1 2 0 94.41534612998488 16.152669168423007 -2.076595499262025 0 0 0
6960 1 1 0 95.94486919993611 15.665101360501879 -1.6215050842100311 0 0 0
9847 1 2 0 96.7869662216495 17.038453752719498 -2.0193349086775747 0 0 0
9338 1 2 0 101.51910269500631 17.45455267740265 -2.1622497292811365 0 0 0
9390 1 2 0 5.44120368135926 17.681398992559718 -2.133040283572608 0 0 0
9392 1 2 0 8.098700451772903 18.590428387773695 -2.1215862429849595 0 0 0
9426 1 2 0 10.83457502002435 19.28434478065641 -2.1540360836956434 0 0 0
6691 1 1 0 9.312557096184499 19.55600486638301 -1.606604334258663 0 0 0
6693 1 1 0 12.29714250332081 18.7745405969995 -1.6127981192468777 0 0 0
9430 1 2 0 13.735052846018554 19.388882580063942 -2.0986998185731895 0 0 0
9867 1 2 0 16.446680302869296 18.67837254619776 -2.12231906723655 0 0 0
7026 1 1 0 15.27464921176138 19.734981329983476 -1.6407428177960346 0 0 0
9866 1 2 0 21.68924522276017 18.324553928848463 -2.122989605630543 0 0 0
6998 1 1 0 22.64625190575688 19.592304509266405 -1.6238137020523293 0 0 0
9899 1 2 0 24.244766189851376 19.376318699777073 -2.032890573004869 0 0 0
6997 1 1 0 25.7493499969898 18.806216316943672 -1.6214487672973485 0 0 0
9900 1 2 0 27.05856527334702 19.703996293720493 -2.0783731581990925 0 0 0
9877 1 2 0 31.38583815120934 18.892556328774443 -2.0471069575149397 0 0 0
9876 1 2 0 35.744277399776344 18.665007659412993 -2.1195295549188815 0 0 0
9740 1 2 0 40.257247049658304 18.339945924726898 -2.0434743329995184 0 0 0
7002 1 1 0 39.72635452082622 19.840271905220057 -1.6200984598025139 0 0 0
9741 1 2 0 44.77175076445508 17.53311437456528 -2.085909151577433 0 0 0
7004 1 1 0 45.82983602294842 18.678411961509493 -1.6124056880160138 0 0 0
9908 1 2 0 47.3211989630499 18.18907118569957 -2.04894083712109 0 0 0
9909 1 2 0 49.99306220315708 18.09286013606679 -2.147320461262863 0 0 0
7036 1 1 0 51.269439747780496 18.951790811155952 -1.6404582511452166 0 0 0
9917 1 2 0 52.67934869492618 18.35336340026833 -2.173266411458338 0 0 0
7009 1 1 0 54.06264345200721 17.671588900066485 -1.6409879153088065 0 0 0
9916 1 2 0 55.306115557894735 18.693841233135352 -2.111253675918884 0 0 0
9914 1 2 0 57.678302606916894 18.60622426661645 -2.003769838478008 0 0 0
7010 1 1 0 56.560415025473276 19.706394565832372 -1.590028281680015 0 0 0
7008 1 1 0 59.094449538122824 17.96584621187697 -1.6214518281316221 0 0 0
9915 1 2 0 60.33859955009519 18.857888689841943 -2.1429710706583087 0 0 0
9919 1 2 0 62.79739280455277 18.15415419472452 -2.073425559870961 0 0 0
7012 1 1 0 61.79601377612351 19.331273768959516 -1.6216325794011575 0 0 0
9920 1 2 0 65.43577155003916 18.32386981893352 -1.9854602875952418 0 0 0
7013 1 1 0 66.9746856868666 18.6489163526438 -1.6013623468127158 0 0 0
7015 1 1 0 72.33891939439415 18.855436717638792 -1.6262019506586602 0 0 0
9925 1 2 0 73.92491177295676 18.978987304451554 -2.077376413941987 0 0 0
7016 1 1 0 75.49245015011552 18.907110253598244 -1.6163773326296589 0 0 0
9923 1 2 0 76.3096857740888 17.598017179308453 -2.1216456809899142 0 0 0
7019 1 1 0 80.25000083068497 17.785062798653428 -1.6385279491663827 0 0 0
9931 1 2 0 80.40844504652024 19.314720775572155 -2.159698098958148 0 0 0
9930 1 2 0 86.79681876956765 18.59639199469314 -2.094680119748807 0 0 0
9934 1 2 0 89.38582668085506 19.294609721170705 -2.0627383240235937 0 0 0
7043 1 1 0 87.84416938533269 19.748220258276884 -1.6259864304740115 0 0 0
9848 1 2 0 91.93487888548066 17.818767812659775 -2.073706331580317 0 0 0
7021 1 1 0 90.99113121253102 19.135455492896877 -1.6363366852208825 0 0 0
9932 1 2 0 96.4326942887662 19.888512995690032 -2.0885742948808947 0 0 0
7020 1 1 0 97.33960529287764 18.55274730849639 -1.6252649857902315 0 0 0
9435 1 2 0 98.91613309517344 18.564369511348726 -2.1355045118562437 0 0 0
6696 1 1 0 100.48826970255288 18.64523687589807 -1.6363160029149086 0 0 0
9424 1 2 0 4.863993234311256 21.89707121044487 -1.9829230224550578 0 0 0
9427 1 2 0 8.885417251943732 21.077817179243638 -1.9506312245644306 0 0 0
9941 1 2 0 15.536367959250887 21.268228209119957 -2.1478972347914547 0 0 0
9901 1 2 0 22.016097617187874 21.07399491738558 -2.0567189399442487 0 0 0
7030 1 1 0 28.236270019575834 20.766607059583233 -1.6420563271045558 0 0 0
9947 1 2 0 27.789342348155696 22.23209024259162 -2.165441681363152 0 0 0
9945 1 2 0 29.795467254321263 20.674059219534936 -2.1596155440339397 0 0 0
7029 1 1 0 31.335080609432115 20.456686797235708 -1.6065626850188965 0 0 0
9946 1 2 0 32.68529214815994 21.271030700242804 -2.103287184528804 0 0 0
9906 1 2 0 35.50580139198657 21.223336719931577 -1.996258910756196 0 0 0
7033 1 1 0 34.0931276734079 22.004027949601834 -1.6261587751053197 0 0 0
7001 1 1 0 36.55627187907841 20.00068284663436 -1.624177348049181 0 0 0
9905 1 2 0 38.14776030474295 20.074181294434013 -2.1283640820064527 0 0 0
9907 1 2 0 40.910528011546134 20.91905956414266 -2.061070776691579 0 0 0
7055 1 1 0 41.947975931236165 22.13910269262229 -1.625529116286304 0 0 0
9910 1 2 0 45.46528090697254 20.189320838203898 -2.131392958070411 0 0 0
7054 1 1 0 45.128949720093345 21.720823393144087 -1.6399643583398698 0 0 0
9980 1 2 0 43.55217999168013 22.045959729288203 -2.0728520317722823 0 0 0
9983 1 2 0 49.22961979580788 22.346553903639652 -1.9948952856403261 0 0 0
9955 1 2 0 51.072225377249325 20.476313910662697 -2.1303148527850277 0 0 0
7056 1 1 0 50.783327581751855 21.98288244751681 -1.6197083483048467 0 0 0
9918 1 2 0 57.62820315871471 20.93694406348566 -2.0977526904488752 0 0 0
7058 1 1 0 58.59540638090142 22.266343363618468 -1.6414215828493155 0 0 0
9921 1 2 0 62.58491639127316 20.651392382191585 -2.1363993240159393 0 0 0
7061 1 1 0 63.53561975024831 21.875969668441734 -1.6348571800403287 0 0 0
9992 1 2 0 65.09276452976435 21.880440222737306 -2.134766304767037 0 0 0
9922 1 2 0 67.18381515614516 20.2268834447509 -2.021348929003425 0 0 0
7064 1 1 0 66.6564795153553 21.742728912346518 -1.6445180371438033 0 0 0
9926 1 2 0 71.77644685083376 20.447684475522976 -2.0412786715988926 0 0 0
7065 1 1 0 71.59242276857309 22.105657527317348 -1.620629332752144 0 0 0
7068 1 1 0 77.51108584624379 21.266613296619052 -1.6181237697032502 0 0 0
9927 1 2 0 76.49037912767784 20.10043176746059 -2.110171674672264 0 0 0
9999 1 2 0 79.08028246381083 21.303026190355457 -2.0311664356768264 0 0 0
7067 1 1 0 80.57605935927793 20.832180689546984 -1.6144278199415296 0 0 0
10000 1 2 0 81.82717178954366 21.722873674411737 -2.163280537613478 0 0 0
9964 1 2 0 87.04348404788365 21.105927959679544 -2.1403188568594227 0 0 0
7069 1 1 0 86.06049319796074 22.331735411583672 -1.62284771187089 0 0 0
9933 1 2 0 91.70697217354954 20.528534601770893 -2.1526655199931435 0 0 0
7023 1 1 0 92.54124839997509 21.845700220275074 -1.6161712583492096 0 0 0
9935 1 2 0 94.12128973829373 21.55609835932614 -2.0271029908040425 0 0 0
7022 1 1 0 95.71728737677758 21.341243878465843 -1.6266205147096882 0 0 0
9433 1 2 0 101.00945308887898 20.13516805610819 -2.075967154164915 0 0 0
6695 1 1 0 101.50307922528835 21.621468369311106 -1.618361211139739 0 0 0
6711 1 1 0 5.8665301877373475 23.156558346881152 -1.613276668967147 0 0 0
9456 1 2 0 4.888566803325985 24.39209306590197 -2.0795576258037256 0 0 0
6712 1 1 0 9.028137152652858 22.663660052555898 -1.6028595799497662 0 0 0
9455 1 2 0 7.4756463848947945 23.121880228318677 -2.100813179009145 0 0 0
9457 1 2 0 10.62075290523624 22.986121215174755 -2.093893675706131 0 0 0
6760 1 1 0 12.174067874821008 23.51279303917515 -1.6299845658978356 0 0 0
9533 1 2 0 13.80987087532844 23.197575308311254 -2.025881669377735 0 0 0
7045 1 1 0 15.439346833799018 22.827646304852937 -1.6389052924410608 0 0 0
9967 1 2 0 16.96441675581134 23.498016236983474 -2.0501552745621754 0 0 0
7046 1 1 0 18.577250234093214 23.874301819523932 -1.6045798934348425 0 0 0
9965 1 2 0 20.01354824902469 23.07559679256828 -2.0562239994732523 0 0 0
7044 1 1 0 21.59604783667075 22.635896402963823 -1.6394905271926254 0 0 0
9966 1 2 0 22.849848707907174 23.646401809938556 -2.1297217175318215 0 0 0
9974 1 2 0 25.656983926518002 23.673048693621286 -1.8863383705109749 0 0 0
7051 1 1 0 24.22963442350185 24.428748962012662 -1.6009223322082702 0 0 0
7050 1 1 0 27.26735543467571 23.648892197027955 -1.5922959493638005 0 0 0
9951 1 2 0 34.11727912836557 23.581439150892674 -2.111168465431207 0 0 0
9982 1 2 0 41.2468188260117 23.53702012468733 -2.1423207440744174 0 0 0
9981 1 2 0 46.42699532355793 22.657890317734353 -2.121124410782973 0 0 0
7057 1 1 0 47.90192168779396 23.240304614049304 -1.6211247568455611 0 0 0
9985 1 2 0 48.46860370290411 24.694913122842024 -2.140954825697855 0 0 0
9984 1 2 0 52.06111589196212 22.85616000691057 -2.1713261637594856 0 0 0
7059 1 1 0 53.33155686553896 23.71474522197176 -1.6004432624548102 0 0 0
9988 1 2 0 54.88502767026949 23.767849178164496 -2.108952375734831 0 0 0
9986 1 2 0 57.47357088133155 23.302492013210124 -2.1865281917016897 0 0 0
7060 1 1 0 56.34723711600963 24.30837898126576 -1.634118239053907 0 0 0
9987 1 2 0 60.000745191064134 23.129219471433537 -2.068523270343858 0 0 0
7062 1 1 0 61.37069429486362 24.044969296156808 -1.6424645765512245 0 0 0
9991 1 2 0 62.6227341874133 23.120754422100102 -2.1265797140562146 0 0 0
9995 1 2 0 67.63617763685086 22.985464173055497 -2.1293039473630144 0 0 0
9996 1 2 0 70.17554217191994 22.89381721139101 -2.0195802926013644 0 0 0
7066 1 1 0 68.9192589615158 23.91935244104068 -1.6249108876917673 0 0 0
9997 1 2 0 72.58283256049671 23.369048708798008 -2.132880809164192 0 0 0
10046 1 2 0 74.96375501668015 24.288397896451347 -2.0669067391542137 0 0 0
7099 1 1 0 73.4640620752031 24.695125174027275 -1.607426937656999 0 0 0
10001 1 2 0 76.97213593464694 22.673725661761434 -2.185898942963644 0 0 0
7100 1 1 0 76.49410539256975 24.099740969983962 -1.6160414207881761 0 0 0
10004 1 2 0 82.35897420419016 24.254730394056427 -2.09105284075102 0 0 0
7070 1 1 0 82.952666739078 22.79545608649546 -1.6427381810731931 0 0 0
10002 1 2 0 84.4915731922679 22.45643267450679 -2.1334551248435734 0 0 0
10003 1 2 0 86.82593788270971 23.70753297887852 -2.044843831325128 0 0 0
10050 1 2 0 89.36407844407323 24.633014475906613 -2.1170288521627114 0 0 0
9937 1 2 0 91.86218885461163 23.303406720492212 -2.0571317132944693 0 0 0
7102 1 1 0 90.94050442088279 24.620916540122096 -1.616268329160774 0 0 0
9936 1 2 0 96.4319156793359 22.759033066378787 -2.124088116388987 0 0 0
7072 1 1 0 96.92418724477334 24.263930856589912 -1.6163806654721782 0 0 0
9539 1 2 0 98.49045580248745 24.534980185302818 -2.0166483566511064 0 0 0
9434 1 2 0 100.57581145957516 22.879750262802055 -2.0683358632098057 0 0 0
6764 1 1 0 100.06490267711912 24.358864021889012 -1.6135775000037487 0 0 0
9527 1 2 0 5.1945992468524285 26.779087916890514 -2.1220572960923203 0 0 0
9530 1 2 0 10.786855100502393 27.32246161559764 -2.144958028541262 0 0 0
9532 1 2 0 12.014435172335928 25.051269878068673 -2.1308705987674834 0 0 0
6761 1 1 0 12.190041267568859 26.58445007696143 -1.6366848731887413 0 0 0
9534 1 2 0 13.77658908120676 26.84334618535287 -2.0950352980967506 0 0 0
7083 1 1 0 15.36555789754603 27.142845588009155 -1.6015697192154927 0 0 0
9968 1 2 0 18.904662571308616 25.473962349407316 -1.8988346583258375 0 0 0
10021 1 2 0 16.95949308266455 27.101852450587785 -2.131225141934394 0 0 0
7082 1 1 0 18.558549578149638 27.068203624945223 -1.6113724138990924 0 0 0
9976 1 2 0 24.772128349239853 25.915583395109092 -2.095687335796221 0 0 0
7111 1 1 0 25.725097961398916 27.189670037593995 -1.6354543120156977 0 0 0
9975 1 2 0 28.239193622064732 24.883171796941213 -2.0456592069182276 0 0 0
10030 1 2 0 27.341993068340138 27.130392966294334 -1.9953762231859384 0 0 0
7087 1 1 0 28.776483463813623 26.374469624952976 -1.6173401125900122 0 0 0
10029 1 2 0 30.329442734513417 26.70917316572943 -2.14724860879259 0 0 0
10027 1 2 0 33.19918281402739 26.19346734584716 -2.050440103691695 0 0 0
7088 1 1 0 31.871517035239357 27.152756952096414 -1.6402242304283756 0 0 0
7086 1 1 0 34.44187905608456 25.129819723963962 -1.6377496486835357 0 0 0
10028 1 2 0 36.0318698722866 25.36364609259739 -2.1331311900401086 0 0 0
7090 1 1 0 37.57255312196131 25.791634319517524 -1.6177866948102018 0 0 0
10032 1 2 0 39.121462276858914 25.300049455493102 -2.077113800507397 0 0 0
7089 1 1 0 40.72351116144624 25.017877886125895 -1.6471566978216419 0 0 0
10033 1 2 0 41.99094026097013 26.001991436168517 -2.1208467074888886 0 0 0
7117 1 1 0 43.14715685636899 27.102098769275266 -1.5971572475489297 0 0 0