LAMMPS data file via write_data, version 2 Aug 2023, timestep = 196, units = metal

15504 atoms
2 atom types

7.783179625247966 196.6687371735844 xlo xhi
6.447419318587535 170.01912135922765 ylo yhi
-100 100 zlo zhi

Masses

1 28.085
2 15.999

Atoms # full

9276 1 2 0 12.678073311248632 7.496061494053031 -2.2268304945629627 0 0 0
9270 1 2 0 11.52783996851717 9.929433420523132 -2.2401821324984184 0 0 0
6595 1 1 0 12.797393708173937 9.048083059421947 -1.6454275219123482 0 0 0
6588 1 1 0 7.976633734769244 11.237209735787127 -1.6427773624156732 0 0 0
9266 1 2 0 9.432279041275919 11.775851367362268 -2.2180354464920056 0 0 0
6591 1 1 0 10.92835801812395 11.357350276655815 -1.6447586156487737 0 0 0
9278 1 2 0 10.140785962672139 6.798505255005388 -2.1692698541020614 0 1 0
13055 1 2 0 12.716745704327172 9.03310554928209 -7.011993623287268e-07 0 0 0
9265 1 2 0 7.9722803506595135 9.668215164529396 -2.16920449450282 1 0 0
13051 1 2 0 10.87864618623043 11.30119281149051 -1.1371294521401052e-07 0 0 0
9607 1 2 0 15.64399173571015 7.365616179382408 -2.168333427736606 0 0 0
9277 1 2 0 14.269600900296368 9.640418220883411 -2.118632215657583 0 0 0
6812 1 1 0 15.723637737278422 8.967283770742837 -1.6379860640845596 0 0 0
9606 1 2 0 16.87392539211685 10.092343188028158 -2.1798836551607286 0 0 0
6813 1 1 0 17.390050750731046 11.61915848997407 -1.6489108372560943 0 0 0
13272 1 2 0 15.900060173225086 8.901658694689209 -2.5506963002940693e-08 0 0 0
6817 1 1 0 21.327421369116976 6.728321994774585 -1.645930451066 0 0 0
9612 1 2 0 21.55474974602267 8.324806455871313 -2.1727786550946018 0 0 0
9611 1 2 0 21.435283253332667 11.132829238213024 -2.1707016069029557 0 0 0
6815 1 1 0 22.26765872298625 9.770545280620695 -1.6474941125234384 0 0 0
9613 1 2 0 23.854513064351583 9.940259924151855 -2.1824725690446547 0 0 0
13277 1 2 0 21.239368630354814 6.764461286847856 -2.742981883867172e-07 0 0 0
13275 1 2 0 22.26561358218535 9.743878132815802 -1.988423158133488e-07 0 0 0
6827 1 1 0 27.37810957251989 7.88821638756191 -1.6384645295565696 0 0 0
9632 1 2 0 28.922602677103004 7.788280366123708 -2.2470414552455242 0 0 0
6823 1 1 0 25.40501696166239 10.273877446329733 -1.6474255114643466 0 0 0
9625 1 2 0 26.48553279671781 9.148711787333415 -2.236238460918376 0 0 0
9624 1 2 0 25.98072862975397 11.743126529538138 -2.186286672097823 0 0 0
13283 1 2 0 25.399494003194928 10.263687106548389 -4.682463060271442e-07 0 0 0
9631 1 2 0 26.593588737410965 6.523302415854744 -2.1220027990401547 0 1 0
6832 1 1 0 30.448359871801195 7.553180199396786 -1.6398113384176598 0 0 0
9637 1 2 0 31.38886319779615 8.77589280110523 -2.169109352000388 0 0 0
6830 1 1 0 31.764384627026683 10.266639956861889 -1.6353917830571278 0 0 0
9638 1 2 0 33.307710632813745 10.473817837076291 -2.2388138786537417 0 0 0
6835 1 1 0 34.80348737689272 10.07006645131333 -1.6093207023628386 0 0 0
9636 1 2 0 30.477942948695283 11.172837684623692 -2.177693456053659 0 0 0
13290 1 2 0 31.818714191484887 10.45587435230759 -9.875649343675996e-08 0 0 0
13295 1 2 0 34.59440207230649 9.774685742786957 -3.7403381349512886e-07 0 0 0
9644 1 2 0 35.80236051906567 11.3415174702789 -1.917791870371744 0 0 0
6838 1 1 0 36.6326001338004 7.604806800869342 -1.6501013527667294 0 0 0
9650 1 2 0 38.21098958186681 7.824803301881331 -2.1797961954109986 0 0 0
6843 1 1 0 39.78378626918609 7.549181810092556 -1.6467060758250156 0 0 0
9645 1 2 0 35.61794100830703 8.778595289745644 -2.2599763836171083 0 0 0
13298 1 2 0 36.65575987744969 7.618253994628878 -5.658853835827025e-07 0 0 0
9655 1 2 0 40.930091311153234 8.658072435730732 -2.1917061398453006 0 0 0
9662 1 2 0 46.23940382713577 8.438267416363317 -2.23944899768839 0 0 0
6841 1 1 0 42.07832109861398 9.770298434925529 -1.6472216242019888 0 0 0
9656 1 2 0 43.64668191345215 9.476990877835984 -2.1864490636577703 0 0 0
6845 1 1 0 45.236669959635066 9.61159792380183 -1.6463509050804663 0 0 0
9654 1 2 0 41.64486938244533 11.289055817470343 -2.1825910397722614 0 0 0
9661 1 2 0 46.05674985350834 10.945336031886384 -2.184367142576266 0 0 0
13305 1 2 0 45.169237191286335 9.583210439209482 -1.8297287369776345e-07 0 0 0
13301 1 2 0 42.07223597137681 9.725120412131908 -9.443115542864908e-08 0 0 0
6848 1 1 0 47.1807322745151 7.212474214091214 -1.6392188983425686 0 0 0
9667 1 2 0 48.78222645580745 7.271220478583287 -2.194262713424756 0 0 0
6854 1 1 0 50.308587990068474 7.771880252242189 -1.6492895473581068 0 0 0
9677 1 2 0 51.70612852491749 7.052592429698938 -2.2650039245081244 0 0 0
9676 1 2 0 50.52576123939526 9.347278302414363 -2.137361601830489 0 0 0
6855 1 1 0 51.35450804610901 10.689565633691084 -1.6422372025469698 0 0 0
13308 1 2 0 47.30072475004317 7.292006213288777 -1.6374840981877902e-07 0 0 0
6864 1 1 0 56.234603948818275 8.372306502808915 -1.5852987736166835 0 0 0
9679 1 2 0 52.89534184069573 10.820376731638627 -2.265741989025732 0 0 0
6863 1 1 0 54.42470412012327 10.783732219543346 -1.6507986637362144 0 0 0
9691 1 2 0 55.2013979324949 9.455730594843331 -2.2678048838160567 0 0 0
9693 1 2 0 55.347619629369746 7.023800219789902 -1.8141129136724108 0 1 0
9694 1 2 0 57.62639886910996 7.892037205047256 -2.3760943558010106 0 0 0
9700 1 2 0 57.681483951059576 10.602113323214489 -2.0766926481010883 0 0 0
13324 1 2 0 56.53178316412073 8.800644345934964 -1.92325778063909e-07 0 0 0
6874 1 1 0 59.02251630104796 7.533989163757341 -1.5845267227665158 0 0 0
9717 1 2 0 62.33566775121312 7.497155822096519 -2.3062918601583564 0 0 0
6873 1 1 0 59.26129624455948 10.442511024387167 -1.5803921619095092 0 0 0
9708 1 2 0 59.923443776242394 8.937757178886793 -1.7578434157041245 0 0 0
9715 1 2 0 62.565242564145784 10.243419052128845 -2.3401400610719123 0 0 0
9709 1 2 0 60.28943440227067 11.534708668181555 -2.261119906562874 0 0 0
6877 1 1 0 61.8380730839044 11.547808805749916 -1.6544357172801682 0 0 0
6879 1 1 0 62.84025412218964 8.842816624043191 -1.5206827165592793 0 0 0
13333 1 2 0 59.21393902435673 10.845684477198535 -1.2072991824745887e-07 0 0 0
13339 1 2 0 62.1663115890861 8.864877719153299 -2.2690331305864126e-07 0 0 0
9723 1 2 0 66.71556683185797 8.09763240836415 -2.2584418780863897 0 0 0
9718 1 2 0 64.45778565998658 8.724456488219092 -1.4223076566987507 0 0 0
6882 1 1 0 65.94557762641367 9.385738264531303 -1.5084499409368626 0 0 0
9720 1 2 0 65.89962534743465 10.916836777939906 -2.227257444319829 0 0 0
6887 1 1 0 67.18953773367357 6.594409831350829 -1.6451308023698539 0 1 0
9729 1 2 0 68.7820718089656 6.640316286724958 -2.135460772349865 0 0 0
13347 1 2 0 66.99121990709646 6.611346681985138 -8.437024297082137e-07 0 1 0
6886 1 1 0 70.01153947285684 7.636878150239748 -1.6433197336456082 0 0 0
9730 1 2 0 71.3422172294004 6.9024473197054785 -2.2461519780739376 0 0 0
9739 1 2 0 73.87443018804635 7.634281151780677 -2.279704198352908 0 0 0
6884 1 1 0 70.63148344271043 10.614867489074603 -1.6455576645661543 0 0 0
9726 1 2 0 70.10408958934612 9.177515197696101 -2.266549134700719 0 0 0
9725 1 2 0 69.5465939097932 11.694222090582981 -2.2739127958897334 0 0 0
9727 1 2 0 72.10076423698423 11.202922589901531 -2.196202758891622 0 0 0
6893 1 1 0 72.81256387915965 6.519985241429406 -1.650272100308776 0 1 0
6892 1 1 0 75.0966166470347 8.488773582274195 -1.5617446633273584 0 0 0
9740 1 2 0 76.4817233377026 7.632710636930817 -1.6572748206258114 0 0 0
9811 1 2 0 78.82503766192964 6.755082594856128 -2.2805032766137185 0 0 0
9737 1 2 0 75.45210849040312 9.925616663676719 -2.3110195752978817 0 0 0
6891 1 1 0 75.79642527985996 11.382655784499972 -1.5902328765408318 0 0 0
9809 1 2 0 79.90071236230847 9.295535247088534 -2.2069600162384657 0 0 0
13351 1 2 0 76.17472395433373 11.139368860218942 -1.40885126713409e-07 0 0 0
13352 1 2 0 74.63746892192823 8.799241456348204 -8.074977924693174e-08 0 0 0
13398 1 2 0 79.99838432379508 7.735212234762625 -1.2362136144066903e-07 0 0 0
6938 1 1 0 80.0194044896334 7.72739503478816 -1.6552390062553366 0 0 0
9812 1 2 0 81.40754624732455 7.063134399129168 -2.2534382087074003 0 0 0
9824 1 2 0 84.01872546705272 7.239465641908111 -2.1749279172243225 0 0 0
6937 1 1 0 80.46495519710105 10.754343316743935 -1.6442941113753688 0 0 0
9810 1 2 0 81.9985993016163 10.990441652158387 -2.213108228974131 0 0 0
9815 1 2 0 84.60954491617757 11.184764774441033 -2.2522254007553273 0 0 0
13397 1 2 0 80.42307340610903 10.732225514220517 -3.272525940300689e-07 0 0 0
6946 1 1 0 85.5681783118877 7.369471987232638 -1.6430349043755044 0 0 0
9822 1 2 0 86.03135359126154 8.818221261669395 -2.2538109266812683 0 0 0
6945 1 1 0 85.88781993285463 10.337953648537553 -1.644015402110693 0 0 0
9823 1 2 0 87.25515059385532 11.023561507638368 -2.2082266850757426 0 0 0
6902 1 1 0 91.00192913172921 10.463743344609394 -1.575101710539169 0 0 0
9756 1 2 0 89.8188947161216 11.40156163329275 -2.2706187390422956 0 0 0
13406 1 2 0 85.63756000547566 7.3243451055235615 -8.266423341384176e-07 0 0 0
6903 1 1 0 92.11721156862718 7.687638288084178 -1.649950624766102 0 0 0
6904 1 1 0 94.96680104497453 6.735481204015912 -1.6450071001529234 0 0 0
9757 1 2 0 93.6933692538573 7.665710172774393 -2.1767241003449143 0 0 0
9754 1 2 0 96.38635129305217 7.403316477809178 -2.186544825922706 0 0 0
9755 1 2 0 91.27166899734056 8.977972391744768 -2.2704430881189577 0 0 0
9746 1 2 0 96.32059252910892 10.041661576048195 -2.1644184376469786 0 0 0
9748 1 2 0 92.440582070368 11.235966918922696 -1.7347350054929231 0 0 0
6896 1 1 0 95.99842450339956 11.605340325187763 -1.6486110167097505 0 0 0
13364 1 2 0 94.97736356556844 6.691218011335634 -4.785805675462794e-07 0 0 0
13363 1 2 0 92.07671450403458 7.72589476896621 2.0299697286124365e-07 0 0 0
6901 1 1 0 97.23009145553175 8.733711253059694 -1.646088737142897 0 0 0
9090 1 2 0 98.80349335365402 8.603910818956589 -2.230775170016734 0 0 0
6484 1 1 0 100.35753076852524 8.35785295722151 -1.640181170973454 0 0 0
9089 1 2 0 101.05332654811394 6.951229774818387 -2.184964429203369 0 0 0
9087 1 2 0 101.54695774920782 9.446515506546486 -2.0820551871009623 0 0 0
6483 1 1 0 101.51773971903752 11.04172019905815 -1.636458886072162 0 0 0
9088 1 2 0 99.99881543535513 11.40707976325376 -2.2310474701928578 0 0 0
12944 1 2 0 100.21662034667361 8.316491587042767 -7.539078376328093e-08 0 0 0
13361 1 2 0 97.32264106237605 8.783831123804344 -2.3147280810115804e-07 0 0 0
9269 1 2 0 11.967837725187593 12.49684865926189 -2.192402108209727 0 0 0
9273 1 2 0 11.299777989592208 15.070994901274505 -2.2412494703825163 0 0 0
6594 1 1 0 12.397163356116323 13.9823610776747 -1.6422601255926 0 0 0
9271 1 2 0 8.573797252244765 15.525341955446313 -2.202538536885308 0 0 0
6593 1 1 0 10.065022715616688 16.00367081522147 -1.64721231614239 0 0 0
13054 1 2 0 12.422117307642448 14.087415500967047 -1.49837821312711e-07 0 0 0
13053 1 2 0 10.080348830441991 15.951241913479581 -9.677943086250769e-08 0 0 0
9349 1 2 0 16.328338365100674 12.796136169589122 -2.1942409094369926 0 0 0
9275 1 2 0 13.921319008770986 14.15143931380138 -2.2438678531782736 0 0 0
6642 1 1 0 15.465620678104631 14.11058360871139 -1.6469382076460717 0 0 0
9348 1 2 0 16.088646700246684 15.52891992646798 -2.223031484241255 0 0 0
6643 1 1 0 16.521432479252148 17.011762913780935 -1.6456115850743194 0 0 0
9350 1 2 0 18.08294106902606 17.120362525500994 -2.1783743937279008 0 0 0
13102 1 2 0 15.466185778863743 14.08681007984723 -5.6068655700456e-07 0 0 0
9608 1 2 0 18.92886963356947 12.067079303763753 -2.1704217202067815 0 0 0
6816 1 1 0 20.492756563714938 12.425711118720747 -1.646732559460157 0 0 0
9614 1 2 0 21.096157883175156 13.943063036383643 -2.1483196052436098 0 0 0
6825 1 1 0 21.73349369766193 15.45321822432449 -1.6497907895619572 0 0 0
9628 1 2 0 23.367564619105128 15.643192036597682 -2.145854035043831 0 0 0
9629 1 2 0 20.751950772842264 16.77008559278481 -2.146221504047004 0 0 0
13285 1 2 0 21.741995355226756 15.452968696442495 -2.2973385632845324e-07 0 0 0
6824 1 1 0 26.820357491577393 13.079691823515223 -1.6469949546035216 0 0 0
9627 1 2 0 28.425083354627233 13.040317795001 -2.2037848317631163 0 0 0
9626 1 2 0 25.930083079422957 14.403468128615676 -2.1670633222983393 0 0 0
6826 1 1 0 25.001611919927054 15.710610110523431 -1.648277500352101 0 0 0
9630 1 2 0 25.865078107030705 17.069968687338914 -2.1853011279462162 0 0 0
6831 1 1 0 29.969972476418892 12.667666257321848 -1.6436916434049051 0 0 0
9639 1 2 0 31.249690576765627 13.583907610931366 -2.210246981945195 0 0 0
6837 1 1 0 32.746422428761825 14.039851407108491 -1.6270603320311756 0 0 0
9648 1 2 0 32.761142408145226 15.595344464249264 -2.09545166463802 0 0 0
9646 1 2 0 34.18368759093029 13.433356527135658 -2.2419571285358795 0 0 0
6910 1 1 0 32.85538037851274 17.147466216570518 -1.6271268195919735 0 0 0
6836 1 1 0 35.65786563628616 12.953733674946202 -1.6065908412880927 0 0 0
9657 1 2 0 39.91590165159617 13.34111198750448 -2.212577766059703 0 0 0
9647 1 2 0 37.075082936166574 13.553857012782965 -2.2478275159138903 0 0 0
6844 1 1 0 38.536729474831766 14.095425393988343 -1.643529483516892 0 0 0
9660 1 2 0 38.613104515060314 15.653936136698432 -2.164666432223108 0 0 0
6917 1 1 0 38.58308105049668 17.211493873121665 -1.6426019493452502 0 0 0
13304 1 2 0 38.53254302763107 13.981526419839408 -3.5677328057807164e-07 0 0 0
6842 1 1 0 41.414238466041134 12.852579200100477 -1.648110514952083 0 0 0
9658 1 2 0 42.6449295732642 13.857641808967168 -2.1990227777712543 0 0 0
6847 1 1 0 44.15401885892314 14.35038398030993 -1.6408734223434456 0 0 0
9663 1 2 0 45.32687962734239 13.382491615058123 -2.270715261795496 0 0 0
9665 1 2 0 44.789673760607904 15.822522616771717 -2.0822181278952625 0 0 0
6846 1 1 0 46.51808308777792 12.435373252301872 -1.6456995986178886 0 0 0
9678 1 2 0 50.514052595697905 11.976220551915395 -2.234459060351355 0 0 0
9664 1 2 0 48.002686615849754 12.921964599113892 -2.2205109734558897 0 0 0
6856 1 1 0 49.54675108061006 13.177761009989606 -1.6451614660034917 0 0 0
9680 1 2 0 50.211191378504466 14.602194834732995 -2.183126385175781 0 0 0
6870 1 1 0 51.277629661276094 15.769400865341128 -1.6546097594839329 0 0 0
9704 1 2 0 50.69804153246614 17.22618731337972 -2.2360029297144832 0 0 0
9692 1 2 0 55.385250461961526 12.058661577579272 -2.179288926029718 0 0 0
6868 1 1 0 56.95283372651903 12.065546632199025 -1.6230822617248482 0 0 0
9703 1 2 0 52.83353597102003 15.386107776069442 -2.204272131776856 0 0 0
6871 1 1 0 54.16020517486397 16.17223010191541 -1.5244535539025774 0 0 0
9705 1 2 0 55.681691069879456 16.29302208011391 -2.2114280859999425 0 0 0
6872 1 1 0 57.20205120102891 16.718448279429055 -1.641232364498223 0 0 0
13331 1 2 0 54.38319171076896 15.552578357671509 -3.035827132158669e-07 0 0 0
13332 1 2 0 57.14006268375958 16.662696788723952 -6.31002609962061e-08 0 0 0
9699 1 2 0 58.02097797503579 13.121884261250477 -2.273267706422037 0 0 0
9714 1 2 0 62.59874249468338 12.904037740643108 -2.1619544407418263 0 0 0
9701 1 2 0 58.20787472582949 15.60676373994653 -2.2645479272202174 0 0 0
6869 1 1 0 58.98547050191408 14.319058470849257 -1.6440714349368344 0 0 0
9702 1 2 0 60.51178790256485 14.515110827550464 -2.2678811725397483 0 0 0
6878 1 1 0 62.03369678741735 14.386886678390352 -1.6372909207438862 0 0 0
9716 1 2 0 63.175033631370894 15.481710870557219 -2.135600199585324 0 0 0
13341 1 2 0 65.2363336704083 12.263249441989503 -2.924038033154855e-07 0 0 0
6881 1 1 0 65.91230582493041 12.45324114029066 -1.5164698146105864 0 0 0
9722 1 2 0 67.44936529494008 12.998288033340234 -1.4381997357846854 0 0 0
6883 1 1 0 64.77508649606715 15.288352061660069 -1.650645977888958 0 0 0
9721 1 2 0 65.21344497869548 13.78392877279568 -2.2556724537782666 0 0 0
9724 1 2 0 65.60619639573639 16.622859376600275 -2.225756065371772 0 0 0
13343 1 2 0 64.93712346819251 15.259242766646457 -4.4424961829669586e-07 0 0 0
6885 1 1 0 69.06003495534942 13.062281193712161 -1.5097553193964497 0 0 0
6888 1 1 0 72.89670473592204 12.536042439062165 -1.5836283833065137 0 0 0
9728 1 2 0 69.48828205219128 14.436045804639852 -2.328428857504115 0 0 0
6890 1 1 0 69.7727076079454 15.851009612536465 -1.5201465944549244 0 0 0
6889 1 1 0 72.84439699708294 15.476115283518656 -1.5182229604132227 0 0 0
9732 1 2 0 72.63820525319707 14.022274372117876 -2.3003189169628615 0 0 0
9734 1 2 0 71.37153204481722 16.20335084968003 -1.4375720203832658 0 0 0
9736 1 2 0 69.10963522641651 17.11717951407111 -2.3213966262740455 0 0 0
9735 1 2 0 73.80766393803187 16.61028146088991 -2.2531074639006903 0 0 0
13349 1 2 0 73.46731228813174 15.203123327082034 -3.766830847046232e-07 0 0 0
9738 1 2 0 77.02102747099443 12.246271209908805 -2.278649756618162 0 0 0
9803 1 2 0 79.60717486395349 12.050302859140928 -2.2050105073661577 0 0 0
9733 1 2 0 74.4986978819376 12.347230743881425 -1.8077179128555891 0 0 0
6933 1 1 0 78.3642726876315 12.991082406613947 -1.6492248578562914 0 0 0
9802 1 2 0 78.49362517684523 14.54548644435793 -2.2279383083627313 0 0 0
9804 1 2 0 77.79385716543524 17.196422177558834 -2.202847410290667 0 0 0
6934 1 1 0 78.87594486596339 16.06067838858337 -1.6464347372389478 0 0 0
6940 1 1 0 83.25051390555315 11.901150517602327 -1.6454573748634003 0 0 0
9814 1 2 0 83.0981007044718 13.473615820929151 -2.1626193237810774 0 0 0
6941 1 1 0 83.86120174684392 14.861192783097366 -1.6462119933395112 0 0 0
9805 1 2 0 80.3885087036144 16.455018766520933 -2.199552897481086 0 0 0
6942 1 1 0 81.78451000582903 17.1610584975687 -1.6471107714539641 0 0 0
9816 1 2 0 83.05342865697729 16.214286420219704 -2.203470026535422 0 0 0
9817 1 2 0 85.4144816855337 14.746166409452067 -2.238611966056527 0 0 0
13402 1 2 0 81.81338949618275 17.183790128712676 -3.990751451668766e-07 0 0 0
6951 1 1 0 88.41416457713065 12.028477462520238 -1.6439259032233036 0 0 0
13411 1 2 0 88.50171580537727 12.115478207476961 -2.6461488724338572e-08 0 0 0
9832 1 2 0 87.99087724618828 13.524738092114609 -2.229369734184782 0 0 0
6952 1 1 0 86.96174690621154 14.693318597526751 -1.6378976161654824 0 0 0
9833 1 2 0 87.62741749519277 16.106784515033794 -2.1244759916241143 0 0 0
6955 1 1 0 88.81414832812504 17.13223417250029 -1.6279473578846868 0 0 0
9750 1 2 0 90.25868237932534 16.365842320433963 -2.1838110425741633 0 0 0
13412 1 2 0 86.8809502597978 14.541221056415562 -1.3447157422875147e-07 0 0 0
6897 1 1 0 93.10413815064318 12.734487282247919 -1.5720650460935952 0 0 0
9745 1 2 0 94.64137696001393 12.416393959791105 -2.222568319800459 0 0 0
6898 1 1 0 91.51337988656043 15.355400032660889 -1.6169544320656133 0 0 0
9747 1 2 0 91.91543198112899 13.79312023728707 -2.1725864172810567 0 0 0
9749 1 2 0 92.97990006289375 15.995450015628167 -2.0182096562997875 0 0 0
6899 1 1 0 93.99243765200006 17.20815320652123 -1.6252461727690446 0 0 0
9751 1 2 0 95.4711098672496 16.89125045523955 -2.280926593332062 0 0 0
13357 1 2 0 93.36866754955794 13.202876615219397 -8.510175356051913e-07 0 0 0
9282 1 2 0 97.3367204879908 12.417294449643812 -2.2209383059392045 0 0 0
6598 1 1 0 98.88021684634836 12.469949622391495 -1.6366732542752807 0 0 0
9281 1 2 0 99.55389949923416 13.858942246214156 -2.1669552279408175 0 0 0
6599 1 1 0 99.39542418683267 15.391725474486613 -1.6387283398863035 0 0 0
9079 1 2 0 100.76839337068752 16.095554755025955 -2.2099854312396707 0 0 0
6900 1 1 0 96.98517788735572 17.056800972518552 -1.6398843883597745 0 0 0
9283 1 2 0 97.9787913175606 15.919614995812246 -2.2886886882010575 0 0 0
13360 1 2 0 96.88597077716993 16.956236117318593 -5.751564890072751e-07 0 0 0
9274 1 2 0 10.314796095604205 17.54337364616297 -2.2060943795050667 0 0 0
6636 1 1 0 11.313516911343259 18.72722044507262 -1.642776602975555 0 0 0
9339 1 2 0 10.79807855793433 20.18191173229636 -2.2436052837878693 0 0 0
9340 1 2 0 12.857801001089149 18.38873026216602 -2.1446665544083947 0 0 0
6637 1 1 0 9.759921878381554 21.326819572121014 -1.644405990661868 0 0 0
9337 1 2 0 8.252148922511005 21.025213279335144 -2.221358894734793 0 0 0
6641 1 1 0 14.25672608798698 19.12916125796622 -1.6422489161099585 0 0 0
9346 1 2 0 15.543566419991432 18.242832148119643 -2.225596386319737 0 0 0
9347 1 2 0 14.150067668887859 20.681591736067155 -2.22863004505173 0 0 0
6685 1 1 0 14.056856523103027 22.236315784813996 -1.6444936757670727 0 0 0
9466 1 2 0 17.94042360641043 22.17995832753717 -2.153812442312629 0 0 0
13101 1 2 0 14.379266133499568 19.18789092611866 -1.747445841251099e-07 0 0 0
6907 1 1 0 19.487373851164104 17.812725681542037 -1.6401104965976971 0 0 0
6961 1 1 0 19.07471101446278 21.011240607770915 -1.6451669908194446 0 0 0
9763 1 2 0 19.232997990392775 19.410434732665838 -2.1630204608065777 0 0 0
9846 1 2 0 20.50834689769311 21.580288303646004 -2.249567576554625 0 0 0
13421 1 2 0 18.914421618272574 20.957017123935433 6.750674022841006e-09 0 0 0
9769 1 2 0 28.601231437266215 17.769215110963884 -2.160043258499894 0 0 0
9770 1 2 0 26.765215000096696 19.703273840022483 -2.214241296437738 0 0 0
6911 1 1 0 27.038833701088855 18.14947286768181 -1.6485057297408288 0 0 0
9847 1 2 0 25.20140937517927 21.8193102615728 -2.2022425054335026 0 0 0
6962 1 1 0 26.653539305229447 21.260645437866188 -1.644598126980216 0 0 0
9848 1 2 0 27.683166181215874 22.42808551863969 -2.2309848148537643 0 0 0
13422 1 2 0 26.778108671272847 21.2021931307402 -5.217362594813597e-07 0 0 0
13371 1 2 0 26.988900348311 18.139941077594358 -6.329416452810804e-07 0 0 0
9767 1 2 0 31.453556360555154 17.81491446449121 -2.2353044139432976 0 0 0
9768 1 2 0 34.336132506676236 17.581460475984205 -2.2462276741784475 0 0 0
13370 1 2 0 32.86982304642119 17.409155793648573 -1.3192657617442067e-07 0 0 0
6912 1 1 0 30.037560276859637 18.463163657697823 -1.6492375777164066 0 0 0
9771 1 2 0 30.050677675445577 20.021571819702945 -2.2481811210610516 0 0 0
9780 1 2 0 35.30413589426214 19.895085608261034 -2.1449325470223592 0 0 0
6966 1 1 0 30.87163834410251 21.310820324474957 -1.6346562764656454 0 0 0
9853 1 2 0 32.43212214380481 21.474478458686328 -2.1636340065467254 0 0 0
9855 1 2 0 34.79128310798407 22.577108505804308 -2.231977194642717 0 0 0
9854 1 2 0 30.24091268906561 22.745489641097517 -2.1267170428952284 0 0 0
13377 1 2 0 38.56013607635118 17.358320478886746 -2.651691975682301e-07 0 0 0
9778 1 2 0 37.168810376890306 17.9004519822741 -2.2238191836695176 0 0 0
9779 1 2 0 40.02157605815831 17.838607518216715 -2.2382622647323354 0 0 0
6918 1 1 0 35.667500530518225 18.368088267174397 -1.640881232978849 0 0 0
6967 1 1 0 35.76830897957586 21.38535731700002 -1.6451944843883213 0 0 0
9856 1 2 0 37.226203433639746 21.62863013163607 -2.3700372460034 0 0 0
7007 1 1 0 38.66053470071545 21.79784144575222 -1.6228585463726937 0 0 0
9912 1 2 0 39.77216496806591 20.727069283790737 -2.19788777831461 0 0 0
13378 1 2 0 35.73324296477751 18.2195423551986 -2.9456660302451936e-07 0 0 0
9781 1 2 0 42.855468326658084 17.35954878134684 -2.2827203209772833 0 0 0
6919 1 1 0 44.412201605693014 17.375244361084494 -1.6430954949907044 0 0 0
6920 1 1 0 41.53342346793934 18.06734820128465 -1.5743258244877085 0 0 0
13380 1 2 0 41.41105333195238 17.569262644259737 -3.268734484003586e-07 0 0 0
13379 1 2 0 44.353091296229145 17.59207748897788 -2.4058686651975744e-07 0 0 0
9783 1 2 0 42.08701570822215 19.61541909198463 -1.7520991458695263 0 0 0
9782 1 2 0 45.56619529769531 18.475261097278484 -2.207526884121873 0 0 0
7006 1 1 0 41.292463869125044 21.01898298301816 -1.5852339350664457 0 0 0
9913 1 2 0 42.17234473331285 22.174608250594954 -2.3433337420256346 0 0 0
13466 1 2 0 41.131799100158794 21.45246281340531 -3.7497972511982705e-07 0 0 0
6926 1 1 0 46.94653984098796 19.272664932481696 -1.6434364206983874 0 0 0
9790 1 2 0 48.29395671307631 18.431274700387664 -2.143226640764102 0 0 0
6925 1 1 0 49.88058682704951 18.547314566149563 -1.646986264772357 0 0 0
9791 1 2 0 50.48449756368532 20.018436276895216 -2.1959940036848655 0 0 0
7008 1 1 0 47.88232740218115 22.27233911381029 -1.6539311071382683 0 0 0
9792 1 2 0 47.21968850534021 20.840838918817457 -2.2077369853042783 0 0 0
6973 1 1 0 51.78867268497427 20.904250055050515 -1.6469036831552786 0 0 0
9864 1 2 0 52.17296145329666 22.482600880589935 -2.0984984978043966 0 0 0
13468 1 2 0 47.91071089788559 22.209706258801777 -4.708117243508808e-07 0 0 0
9706 1 2 0 53.495237293883115 17.68903372713669 -1.5204431470310424 0 0 0
9862 1 2 0 53.0939787831722 20.160246484706885 -2.356137127807706 0 0 0
6972 1 1 0 54.13461199573645 19.190051662661194 -1.570006522532124 0 0 0
9863 1 2 0 55.61882821805668 19.104976399220433 -2.3494487853429074 0 0 0
6980 1 1 0 56.66729442919153 20.059096454564486 -1.4597114236441986 0 0 0
9875 1 2 0 55.81479023319115 21.418323166216403 -1.2544250384901692 0 0 0
13432 1 2 0 54.25794487027391 19.70970767794105 -1.142206385066056e-07 0 0 0
9707 1 2 0 58.1433845473579 18.045734000397267 -2.1661174563634953 0 0 0
9873 1 2 0 58.19032704642925 20.525499176537018 -1.8902312791128872 0 0 0
6979 1 1 0 59.19437228756962 19.217472819899456 -1.5597520851047146 0 0 0
9874 1 2 0 60.589226039305196 19.83591776741716 -2.2168048557653086 0 0 0
9882 1 2 0 60.43071258682646 22.664437402478143 -2.1886289693967216 0 0 0
6984 1 1 0 61.25996446236118 21.287916236530794 -1.656688551046091 0 0 0
9881 1 2 0 62.82832222582866 21.23712839745845 -2.2265863479304184 0 0 0
13444 1 2 0 61.25438013413541 21.30844060287023 -4.993827857555331e-07 0 0 0
13443 1 2 0 65.88921994474524 18.08133792967646 1.4647156705955593e-07 0 0 0
6983 1 1 0 65.88311498658581 18.178376912040868 -1.6446902678100042 0 0 0
9879 1 2 0 64.65379910858363 19.169488186149515 -2.175710036254882 0 0 0
9880 1 2 0 67.30668171899538 18.91346106516227 -2.143284072059339 0 0 0
6985 1 1 0 64.3049578570077 20.70947562129416 -1.6407408358032785 0 0 0
9883 1 2 0 65.62546255627663 21.629516137820392 -2.1021676382264722 0 0 0
6986 1 1 0 68.8739257307983 18.62213825369652 -1.6515302380446983 0 0 0
9884 1 2 0 70.07174030906206 19.654837022425927 -2.1991859427758427 0 0 0
6987 1 1 0 71.57828197255145 20.156738008027244 -1.647307565691295 0 0 0
9807 1 2 0 72.81373486660151 19.181409361221853 -2.208640103340664 0 0 0
6935 1 1 0 74.00800751605396 18.161617793484822 -1.6537324038769958 0 0 0
9885 1 2 0 71.922120680938 21.69946794721855 -2.182658471200741 0 0 0
13447 1 2 0 71.57137020789624 20.131749847296692 -5.630271435855705e-07 0 0 0
13446 1 2 0 68.9634411007082 18.65107307088159 -7.48067179182458e-07 0 0 0
9806 1 2 0 75.49904976240073 18.65314857420755 -2.1990569868455383 0 0 0
6936 1 1 0 77.06400494141494 18.588690286938075 -1.6460764875406793 0 0 0
9808 1 2 0 77.84463175529056 19.945606185293048 -2.2046973780519488 0 0 0
9935 1 2 0 77.83671676035736 22.646527438801716 -2.1750103063132586 0 0 0
7021 1 1 0 78.67957473188517 21.275969192445356 -1.6473251903560835 0 0 0
13396 1 2 0 77.10410460063272 18.586277354652882 -6.925887057364448e-08 0 0 0
9818 1 2 0 81.8408797272629 18.738700281816225 -2.193895187039057 0 0 0
6990 1 1 0 81.71214310304055 20.322538048999423 -1.6478066563743172 0 0 0
9890 1 2 0 80.28376356989854 21.06954336617289 -2.1606050979731197 0 0 0
9889 1 2 0 83.0855882768648 21.130235395228677 -2.178005704684377 0 0 0
6991 1 1 0 84.55816227160243 21.744412587348485 -1.6489167055773783 0 0 0
13450 1 2 0 81.7075089647766 20.321501701923808 -5.648214706429717e-07 0 0 0
13451 1 2 0 84.59774219818485 21.754731006302013 -1.3593745455382478e-07 0 0 0
6989 1 1 0 87.2918505411838 20.023994630649092 -1.6394184963249363 0 0 0
9837 1 2 0 88.0634061115391 18.58107067561606 -2.1267136020784214 0 0 0
9892 1 2 0 90.84971792437166 19.75396217938727 -2.156426789779995 0 0 0
9887 1 2 0 85.82622030683007 20.720869921191742 -2.164793163210665 0 0 0
9888 1 2 0 88.41588249887407 21.12267983607614 -2.1955793798541543 0 0 0
6993 1 1 0 89.96839413532096 21.091221013761057 -1.6535792613674791 0 0 0
9894 1 2 0 90.75233835646559 22.367561237081212 -2.3400786415569947 0 0 0
6992 1 1 0 92.42392007733298 19.711815923250075 -1.6338525922794946 0 0 0
9752 1 2 0 93.30895546082934 18.526398622792083 -2.340712319574621 0 0 0
9893 1 2 0 93.2436624943953 21.08306814223668 -2.123359497955126 0 0 0
6997 1 1 0 94.79883144912645 21.269389282856732 -1.5775457393320875 0 0 0
9898 1 2 0 95.93310591853337 20.340733056077863 -2.3247288256438803 0 0 0
13452 1 2 0 92.35454379542799 19.50089771332758 -1.841082048833474e-07 0 0 0
9753 1 2 0 97.72621502886878 18.44966169050998 -2.111956428407324 0 0 0
6996 1 1 0 97.40388807098341 19.9854402263145 -1.6447286490162842 0 0 0
9404 1 2 0 98.56231747012913 20.945229750412867 -2.293618864560898 0 0 0
6678 1 1 0 99.90882834741446 21.630414554006443 -1.64574023517084 0 0 0
9294 1 2 0 101.21188186297744 20.767624739936156 -2.1786712488052418 0 0 0
9341 1 2 0 10.193703924230645 22.828893797620076 -2.177243556696858 0 0 0
6675 1 1 0 11.392942984742394 23.83994633972955 -1.644051217100538 0 0 0
9399 1 2 0 12.81751452284123 23.191166056089383 -2.21672827024705 0 0 0
13135 1 2 0 11.47014362468124 23.9109868367219 -1.0239171223366036e-06 0 0 0
6676 1 1 0 10.069149262358914 26.615473069187733 -1.6445586754107655 0 0 0
9396 1 2 0 8.525788663285091 26.537051604494867 -2.2040898459844436 0 0 0
9398 1 2 0 11.015378209480378 25.361776431493006 -2.2221354612983895 0 0 0
9400 1 2 0 10.479187640867707 28.10198205642934 -2.220546934685074 0 0 0
6719 1 1 0 16.89294463036433 23.42173299382332 -1.6410263074777574 0 0 0
9413 1 2 0 15.417687047257628 22.95806974878603 -2.203393401552925 0 0 0
13179 1 2 0 17.051136448093175 23.477086956487955 -3.4985947820607173e-07 0 0 0
9465 1 2 0 16.885586378319623 25.043528925796032 -2.1700225078126385 0 0 0
6720 1 1 0 16.416835185855373 26.5823497311095 -1.6428573309400403 0 0 0
9463 1 2 0 15.01075435224532 27.375121000545587 -2.1760791466336484 0 0 0
9467 1 2 0 17.576278526286117 27.65856258267009 -2.157259266444125 0 0 0
9849 1 2 0 22.848279215615854 22.809148671803772 -2.298130517729761 0 0 0
6963 1 1 0 21.3508150929121 22.83865737486447 -1.6353882528342205 0 0 0
6964 1 1 0 24.332985171965095 23.095605679482354 -1.6460130009323892 0 0 0
9850 1 2 0 20.59221415004348 24.237893792222142 -2.0728182243152 0 0 0
7035 1 1 0 21.140070895504564 25.734250771759736 -1.6371099611664388 0 0 0
9957 1 2 0 20.040644260204143 26.72932292316753 -2.312088719312296 0 0 0