ITEM: TIMESTEP
1474
ITEM: NUMBER OF ATOMS
15552
ITEM: BOX BOUNDS pp pp pp
0.0000000000000000e+00 2.0409240510490559e+02
0.0000000000000000e+00 1.7717732042051873e+02
-1.0000000000000000e+02 1.0000000000000000e+02
ITEM: ATOMS id type element x y z v_uncoordination
1 1 Si 195.729 38.3382 1.62755 0
2 1 Si 197.849 40.813 1.63468 0
3 1 Si 201.914 36.6415 1.61655 0
4 1 Si 200.909 39.7816 1.60776 0
5 1 Si 199.498 34.3335 1.63419 0
6 1 Si 196.299 35.1761 1.61308 0
7 1 Si 192.535 38.7609 1.63376 0
8 1 Si 191.36 41.7363 1.63105 0
9 1 Si 193.576 44.236 1.63904 0
10 1 Si 196.879 44.0045 1.62624 0
11 1 Si 1.15423 36.6914 1.62343 0
12 1 Si 1.90217 39.9182 1.62942 0
13 1 Si 203.288 41.9987 1.60789 0
14 1 Si 105.041 5.82174 1.60991 0
15 1 Si 101.805 5.28678 1.62548 0
16 1 Si 104.805 8.99631 1.62689 0
17 1 Si 101.847 10.2647 1.63191 0
18 1 Si 99.673 7.85407 1.61854 0
19 1 Si 108.146 4.75644 1.62662 0
20 1 Si 109.067 1.39183 1.64857 0
21 1 Si 100.812 2.24609 1.62636 0
22 1 Si 103.119 176.95 1.61522 0
23 1 Si 106.491 176.168 1.63508 0
24 1 Si 109.503 7.86073 1.62645 0
25 1 Si 107.572 10.5471 1.62342 0
26 1 Si 114.82 6.07242 1.61947 0
27 1 Si 112.63 8.55362 1.62607 0
28 1 Si 114.964 2.74615 1.63332 0
29 1 Si 112.463 0.533004 1.61615 0
30 1 Si 117.489 7.87716 1.63253 0
31 1 Si 116.83 11.0441 1.6381 0
32 1 Si 113.709 11.6758 1.62273 0
33 1 Si 122.41 4.31797 1.62491 0
34 1 Si 120.558 6.97248 1.62475 0
35 1 Si 121.154 1.38058 1.6264 0
36 1 Si 117.871 1.11719 1.60613 0
37 1 Si 125.575 5.04731 1.61688 0
38 1 Si 125.643 8.22741 1.62664 0
39 1 Si 122.669 9.35413 1.63649 0
40 1 Si 128.399 3.52106 1.64057 0
41 1 Si 131.38 4.96819 1.63545 0
42 1 Si 133.201 7.7533 1.63455 0
43 1 Si 127.958 10.3854 1.61937 0
44 1 Si 131.196 10.3395 1.62544 0
45 1 Si 128.426 0.252577 1.63246 0
46 1 Si 126.243 174.966 1.63278 0
47 1 Si 122.965 175.76 1.61178 0
48 1 Si 133.302 2.48762 1.60449 0
49 1 Si 136.427 1.87206 1.62517 0
50 1 Si 138.24 4.63749 1.61855 0
51 1 Si 136.686 7.79107 1.61716 0
52 1 Si 131.568 177.032 1.61989 0
53 1 Si 136.521 175.72 1.62658 0
54 1 Si 133.378 174.481 1.63434 0
55 1 Si 141.577 4.13151 1.62925 0
56 1 Si 142.811 7.23122 1.6294 0
57 1 Si 141.945 10.44 1.62803 0
58 1 Si 138.652 10.7521 1.63867 0
59 1 Si 143.607 1.27473 1.63594 0
60 1 Si 146.886 2.23402 1.6359 0
61 1 Si 148.011 5.33847 1.6267 0
62 1 Si 145.913 7.65856 1.62138 0
63 1 Si 142.738 174.957 1.63865 0
64 1 Si 139.135 173.689 1.63286 0
65 1 Si 149.437 0.215479 1.62805 0
66 1 Si 153.384 4.64648 1.64311 0
67 1 Si 150.89 6.89223 1.62285 0
68 1 Si 152.545 1.37556 1.63429 0
69 1 Si 145.638 172.831 1.63891 0
70 1 Si 148.968 174.14 1.61392 0
71 1 Si 156.669 5.39186 1.61407 0
72 1 Si 158.153 8.4348 1.62139 0
73 1 Si 150.113 10.2298 1.61554 0
74 1 Si 156.535 11.1884 1.61767 0
75 1 Si 150.933 13.4986 1.62892 0
76 1 Si 153.95 12.8905 1.6074 0
77 1 Si 158.742 2.7198 1.62474 0
78 1 Si 157.975 176.532 1.63278 0
79 1 Si 154.577 175.957 1.62542 0
80 1 Si 161.936 3.5301 1.6238 0
81 1 Si 163.466 6.48504 1.62699 0
82 1 Si 161.454 9.1837 1.62964 0
83 1 Si 164.212 1.21645 1.61786 0
84 1 Si 163.855 175.154 1.63473 0
85 1 Si 160.548 174.074 1.63792 0
86 1 Si 167.075 2.69293 1.61084 0
87 1 Si 166.816 5.89343 1.60546 0
88 1 Si 169.923 1.30677 1.62336 0
89 1 Si 170.002 175.298 1.61044 0
90 1 Si 167.001 173.774 1.63567 0
91 1 Si 172.855 2.62033 1.62307 0
92 1 Si 173.402 5.71383 1.62677 0
93 1 Si 170.113 6.72748 1.61782 0
94 1 Si 175.284 0.5973 1.62454 0
95 1 Si 173.32 175.155 1.62897 0
96 1 Si 178.469 1.41893 1.65095 0
97 1 Si 179.456 4.51667 1.63924 0
98 1 Si 176.736 6.45013 1.63973 0
99 1 Si 180.736 176.309 1.642 0
100 1 Si 185.258 3.11807 1.63901 0
101 1 Si 184.127 176.989 1.62567 0
102 1 Si 182.707 5.4559 1.64849 0
103 1 Si 175.353 172.723 1.62625 0
104 1 Si 178.615 173.677 1.62953 0
105 1 Si 191.695 2.80067 1.62759 0
106 1 Si 188.544 4.31636 1.61965 0
107 1 Si 194.183 5.2195 1.61618 0
108 1 Si 192.308 8.0665 1.61976 0
109 1 Si 188.935 7.67908 1.61902 0
110 1 Si 192.314 176.485 1.62922 0
111 1 Si 189.527 173.939 1.62709 0
112 1 Si 185.988 174.135 1.63134 0
113 1 Si 197.793 5.26245 1.62317 0
114 1 Si 200.177 2.49762 1.61786 0
115 1 Si 195.882 175.456 1.61833 0
116 1 Si 199.505 176.323 1.63585 0
117 1 Si 199.016 8.52884 1.61841 0
118 1 Si 193.698 11.0853 1.61612 0
119 1 Si 197.06 11.3071 1.61488 0
120 1 Si 0.0455309 6.27203 1.62986 0
121 1 Si 202.277 9.03171 1.62576 0
122 1 Si 203.607 3.0164 1.62305 0
123 1 Si 2.90648 7.60895 1.61968 0
124 1 Si 2.82967 10.8045 1.62981 0
125 1 Si 203.971 11.9514 1.63324 0
126 1 Si 5.97379 6.91377 1.63448 0
127 1 Si 7.52722 4.18078 1.62193 0
128 1 Si 5.57525 1.51496 1.62859 0
129 1 Si 2.25641 0.907861 1.63217 0
130 1 Si 121.976 12.4702 1.64615 0
131 1 Si 118.966 13.4323 1.64447 0
132 1 Si 126.993 13.447 1.62867 0
133 1 Si 124.14 14.8192 1.63485 0
134 1 Si 146.933 10.6533 1.59502 0
135 1 Si 144.496 12.7309 1.63586 0
136 1 Si 170.724 9.75363 1.62666 0
137 1 Si 174.084 9.86095 1.63628 0
138 1 Si 168.133 11.6875 1.60759 0
139 1 Si 170.841 13.1683 1.61875 0
140 1 Si 173.94 12.866 1.64096 0
141 1 Si 177.431 9.59061 1.62018 0
142 1 Si 183.163 8.83141 1.64678 0
143 1 Si 180.523 11.0372 1.63498 0
144 1 Si 186.319 10.0385 1.64985 0
145 1 Si 5.69039 12.1418 1.60848 0
146 1 Si 7.54845 9.63927 1.61269 0
147 1 Si 157.039 43.3569 1.63323 0
148 1 Si 156.152 40.4365 1.62137 0
149 1 Si 154.298 44.824 1.62412 0
150 1 Si 152.933 40.3636 1.62436 0
151 1 Si 151.578 43.3006 1.64456 0
152 1 Si 159.792 44.7585 1.64954 0
153 1 Si 158.608 38.4516 1.63992 0
154 1 Si 161.7 39.5462 1.6266 0
155 1 Si 162.349 42.8027 1.63201 0
156 1 Si 155.153 47.736 1.63447 0
157 1 Si 158.354 47.639 1.63491 0
158 1 Si 107.396 13.8358 1.65345 0
159 1 Si 104.41 15.1534 1.62405 0
160 1 Si 101.631 13.513 1.60894 0
161 1 Si 112.947 14.8814 1.63952 0
162 1 Si 109.88 15.9761 1.63032 0
163 1 Si 118.423 16.6319 1.63349 0
164 1 Si 115.278 17.2303 1.63466 0
165 1 Si 131.997 13.4774 1.61749 0
166 1 Si 129.418 15.4167 1.62335 0
167 1 Si 137.859 14.0406 1.63159 0
168 1 Si 134.754 15.0161 1.62084 0
169 1 Si 162.494 12.4271 1.61365 0
170 1 Si 157.581 14.172 1.62674 0
171 1 Si 160.529 15.1056 1.61495 0
172 1 Si 165.566 13.5535 1.63532 0
173 1 Si 192.148 14.072 1.61911 0
174 1 Si 186.413 13.5221 1.61363 0
175 1 Si 189.047 15.4898 1.62474 0
176 1 Si 197.808 14.547 1.63003 0
177 1 Si 194.835 15.8836 1.61061 0
178 1 Si 203.82 15.3222 1.65078 0
179 1 Si 200.538 16.5763 1.63122 0
180 1 Si 2.8819 17.0988 1.62977 0
181 1 Si 7.86536 14.5209 1.63267 0
182 1 Si 6.42901 17.3667 1.62197 0
183 1 Si 123.652 18.0623 1.63816 0
184 1 Si 120.619 19.1164 1.62985 0
185 1 Si 128.886 18.6005 1.64058 0
186 1 Si 126.061 20.2583 1.64177 0
187 1 Si 145.16 16.0814 1.61264 0
188 1 Si 139.503 16.9156 1.6298 0
189 1 Si 142.575 18.0116 1.61492 0
190 1 Si 147.663 18.4239 1.61723 0
191 1 Si 150.644 16.9503 1.62325 0
192 1 Si 154.993 15.8581 1.60483 0
193 1 Si 171.269 16.1319 1.63732 0
194 1 Si 166.33 16.7323 1.62955 0
195 1 Si 169.139 18.2626 1.63792 0
196 1 Si 176.179 14.9906 1.62693 0
197 1 Si 174.082 17.1682 1.61831 0
198 1 Si 181.018 14.4754 1.6199 0
199 1 Si 178.714 16.8241 1.63972 0
200 1 Si 183.967 15.9083 1.61349 0
201 1 Si 109.367 19.2441 1.6285 0
202 1 Si 106.331 20.4009 1.63802 0
203 1 Si 103.825 18.326 1.62699 0
204 1 Si 114.794 20.4074 1.62834 0
205 1 Si 111.782 21.433 1.61597 0
206 1 Si 134.302 18.2006 1.6239 0
207 1 Si 131.678 20.0848 1.65354 0
208 1 Si 137.266 19.2318 1.63529 0
209 1 Si 160.87 18.3626 1.62423 0
210 1 Si 153.53 18.6691 1.63049 0
211 1 Si 158.723 20.9633 1.63389 0
212 1 Si 155.372 21.5213 1.62749 0
213 1 Si 164.065 18.8858 1.61934 0
214 1 Si 194.532 18.978 1.62473 0
215 1 Si 187.775 18.6818 1.60123 0
216 1 Si 192.21 21.0443 1.61861 0
217 1 Si 189.095 21.6393 1.6232 0
218 1 Si 199.584 19.8577 1.62224 0
219 1 Si 196.699 21.2245 1.61871 0
220 1 Si 0.0890111 21.9574 1.58604 0
221 1 Si 201.008 22.736 1.61858 0
222 1 Si 2.85578 20.2716 1.6374 0
223 1 Si 120.095 22.4166 1.6291 0
224 1 Si 116.881 22.9062 1.62076 0
225 1 Si 125.688 23.6137 1.63491 0
226 1 Si 122.457 24.8962 1.63433 0
227 1 Si 131.536 23.3075 1.63443 0
228 1 Si 128.711 25.2244 1.64 0
229 1 Si 143.418 21.2082 1.6118 0
230 1 Si 146.727 21.8056 1.62078 0
231 1 Si 174.788 20.1525 1.59006 0
232 1 Si 171.633 20.2327 1.64938 0
233 1 Si 177.926 20.0729 1.63857 0
234 1 Si 184.496 19.3355 1.62197 0
235 1 Si 179.227 23.1305 1.63299 0
236 1 Si 182.701 22.8169 1.63974 0
237 1 Si 106.038 23.645 1.63154 0
238 1 Si 102.745 24.3568 1.63543 0
239 1 Si 100.647 19.0597 1.609 0
240 1 Si 100.026 22.3601 1.6325 0
241 1 Si 112.087 24.7131 1.61166 0
242 1 Si 108.872 25.6275 1.62837 0
243 1 Si 115.376 25.8251 1.60951 0
244 1 Si 137.541 22.3721 1.62352 0
245 1 Si 134.717 24.1214 1.63957 0
246 1 Si 140.747 23.1452 1.6213 0
247 1 Si 165.476 21.6982 1.63875 0
248 1 Si 160.364 23.7422 1.62497 0
249 1 Si 163.472 24.0099 1.62598 0
250 1 Si 171.357 23.2665 1.62742 0
251 1 Si 168.22 23.1925 1.6028 0
252 1 Si 194.366 23.305 1.62515 0
253 1 Si 187.658 24.6761 1.62378 0
254 1 Si 193.07 26.1488 1.61938 0
255 1 Si 189.927 26.9307 1.63573 0
256 1 Si 0.794401 24.9918 1.61486 0
257 1 Si 199.958 25.9038 1.60784 0
258 1 Si 202.786 27.2309 1.61177 0
259 1 Si 108.361 28.8043 1.61271 0
260 1 Si 105.091 29.1154 1.6178 0
261 1 Si 102.232 27.5508 1.63721 0
262 1 Si 121.336 28.2798 1.62061 0
263 1 Si 117.721 28.4647 1.62303 0
264 1 Si 129.212 28.619 1.62783 0
265 1 Si 123.518 31.38 1.62648 0
266 1 Si 127.116 31.3877 1.63274 0
267 1 Si 154.493 24.9207 1.61893 0
268 1 Si 148.043 25.1895 1.63109 0
269 1 Si 151.304 26.3272 1.61412 0
270 1 Si 160.38 26.9977 1.62688 0
271 1 Si 157.113 27.2826 1.61845 0
272 1 Si 173.59 25.5392 1.61119 0
273 1 Si 168.298 26.333 1.61201 0
274 1 Si 171.155 27.6648 1.62656 0
275 1 Si 176.943 25.9146 1.63985 0
276 1 Si 184.473 25.874 1.62028 0
277 1 Si 3.63136 26.0429 1.62915 0
278 1 Si 5.92109 21.4335 1.61931 0
279 1 Si 6.28607 24.5008 1.60418 0
280 1 Si 110.123 31.6044 1.63597 0
281 1 Si 107.698 33.774 1.62928 0
282 1 Si 104.805 32.2451 1.61502 0
283 1 Si 116.409 31.5293 1.62376 0
284 1 Si 113.255 32.7011 1.63941 0
285 1 Si 134.917 27.2752 1.63552 0
286 1 Si 132.5 29.392 1.61214 0
287 1 Si 140.65 26.2814 1.61031 0
288 1 Si 137.982 27.9633 1.59328 0
289 1 Si 146.168 28.0415 1.61625 0
290 1 Si 142.91 28.4958 1.63448 0
291 1 Si 165.212 26.6371 1.6362 0
292 1 Si 163.221 28.9804 1.6379 0
293 1 Si 177.531 29.3198 1.61888 0
294 1 Si 183.704 29.8205 1.63396 0
295 1 Si 180.328 31.3249 1.62308 0
296 1 Si 194.929 28.6997 1.61943 0
297 1 Si 189.352 30.1065 1.61076 0
298 1 Si 192.528 30.8998 1.61631 0
299 1 Si 198.178 28.6538 1.63081 0
300 1 Si 203.41 30.3268 1.61295 0
301 1 Si 2.41375 31.3253 1.64217 0
302 1 Si 4.53853 28.9841 1.61177 0
303 1 Si 118.567 34.0373 1.62792 0
304 1 Si 121.826 34.5249 1.62483 0
305 1 Si 134.447 32.0976 1.62207 0
306 1 Si 129.037 34.3078 1.62271 0
307 1 Si 132.388 34.5723 1.61945 0
308 1 Si 151.273 29.6877 1.6074 0
309 1 Si 148.156 30.6671 1.61145 0
310 1 Si 157.098 30.5908 1.60993 0
311 1 Si 153.954 31.6506 1.62245 0
312 1 Si 171.472 30.8279 1.63076 0
313 1 Si 165.18 31.8079 1.63288 0
314 1 Si 168.636 32.7589 1.65394 0
315 1 Si 174.802 31.3447 1.62958 0
316 1 Si 186.564 32.0274 1.62414 0
317 1 Si 200.291 31.2056 1.62598 0
318 1 Si 107.827 37.0524 1.62989 0
319 1 Si 104.996 38.2521 1.62177 0
320 1 Si 102.354 36.6029 1.60434 0
321 1 Si 101.866 33.5463 1.63161 0
322 1 Si 113.647 35.9143 1.63122 0
323 1 Si 109.487 39.941 1.61369 0
324 1 Si 112.499 38.9357 1.62957 0
325 1 Si 140.199 30.1686 1.59585 0
326 1 Si 137.816 32.2799 1.62695 0
327 1 Si 147.161 33.7215 1.63935 0
328 1 Si 143.952 33.6729 1.61263 0
329 1 Si 140.767 33.5658 1.62913 0
330 1 Si 159.437 33.0592 1.6259 0
331 1 Si 154.139 34.9183 1.6192 0
332 1 Si 157.351 35.5266 1.62003 0
333 1 Si 162.754 34.0507 1.62714 0
334 1 Si 175.502 34.5019 1.62462 0
335 1 Si 178.884 34.6254 1.61514 0
336 1 Si 193.255 33.9684 1.62904 0
337 1 Si 123.414 54.8636 1.61607 0
338 1 Si 120.307 53.4825 1.65817 0
339 1 Si 125.963 52.8211 1.62386 0
340 1 Si 123.226 48.1662 1.62787 0
341 1 Si 120.51 49.9989 1.61678 0
342 1 Si 126.04 49.5963 1.64011 0
343 1 Si 125 57.8407 1.63065 0
344 1 Si 117.375 55.4685 1.62359 0
345 1 Si 117.133 59.0378 1.63327 0
346 1 Si 120.125 60.9719 1.62652 0
347 1 Si 123.592 60.8437 1.61651 0
348 1 Si 128.763 54.3325 1.62972 0
349 1 Si 128.322 57.5378 1.61601 0
350 1 Si 3.59993 34.3489 1.62668 0
351 1 Si 116.709 36.5827 1.63155 0
352 1 Si 128.313 37.561 1.63906 0
353 1 Si 122.467 38.0426 1.63224 0
354 1 Si 125.516 39.3651 1.63265 0
355 1 Si 133.652 37.581 1.61005 0
356 1 Si 131.012 39.4113 1.6218 0
357 1 Si 148.641 36.6842 1.63279 0
358 1 Si 143.891 36.762 1.59877 0
359 1 Si 146.218 38.8213 1.62007 0
360 1 Si 10.8566 4.57401 1.631 0
361 1 Si 12.8303 1.8343 1.62952 0
362 1 Si 7.55434 176.093 1.61094 0
363 1 Si 10.998 176.13 1.63551 0
364 1 Si 151.841 37.316 1.62922 0
365 1 Si 12.2323 7.6378 1.63217 0
366 1 Si 10.5516 10.4094 1.61724 0
367 1 Si 17.2582 5.41671 1.62467 0
368 1 Si 15.4117 8.20163 1.62404 0
369 1 Si 16.2812 2.20982 1.62587 0
370 1 Si 20.3289 6.29828 1.59988 0
371 1 Si 21.4901 9.22752 1.61139 0
372 1 Si 16.4343 11.4214 1.63246 0
373 1 Si 19.7223 11.8043 1.6258 0
374 1 Si 23.4725 5.92567 1.63887 0
375 1 Si 24.6545 3.01935 1.62577 0
376 1 Si 22.2425 0.59346 1.60835 0
377 1 Si 18.8915 177.139 1.63578 0
378 1 Si 24.6453 8.9204 1.59759 0
379 1 Si 28.0441 3.14736 1.617 0
380 1 Si 28.6803 177.146 1.62865 0
381 1 Si 23.5863 174.791 1.61708 0
382 1 Si 26.7936 174.519 1.63039 0
383 1 Si 169.607 35.9983 1.65124 0
384 1 Si 163.989 37.2294 1.63493 0
385 1 Si 167.187 38.3864 1.65442 0
386 1 Si 30.8205 5.13289 1.64487 0
387 1 Si 31.1541 8.38992 1.61772 0
388 1 Si 26.4753 11.6718 1.63198 0
389 1 Si 29.7466 11.3716 1.62486 0
390 1 Si 33.9027 3.87233 1.62578 0
391 1 Si 34.2657 0.787996 1.63202 0
392 1 Si 31.6987 176.201 1.6155 0
393 1 Si 172.94 36.7609 1.64712 0
394 1 Si 37.0075 4.84876 1.62773 0
395 1 Si 36.9432 7.93138 1.64278 0
396 1 Si 34.1734 9.39174 1.61647 0
397 1 Si 39.9841 3.54557 1.63908 0
398 1 Si 39.9451 0.410697 1.64723 0
399 1 Si 37.0311 176.428 1.63361 0
400 1 Si 42.9667 4.82623 1.63809 0
401 1 Si 42.557 8.01822 1.6594 0
402 1 Si 39.6673 9.47026 1.62301 0
403 1 Si 187.42 35.5985 1.62872 0
404 1 Si 179.67 38.0002 1.61982 0
405 1 Si 182.601 39.7859 1.61508 0
406 1 Si 185.975 38.9157 1.62732 0
407 1 Si 45.8413 3.14718 1.63548 0
408 1 Si 45.5829 177.036 1.62138 0
409 1 Si 42.6079 175.879 1.63567 0
410 1 Si 48.7564 4.8082 1.62908 0
411 1 Si 48.212 8.26498 1.63464 0
412 1 Si 45.1342 9.88339 1.63186 0
413 1 Si 51.5441 2.69201 1.63406 0
414 1 Si 51.7021 176.568 1.60768 0
415 1 Si 47.1275 174.121 1.62575 0
416 1 Si 50.2814 173.63 1.62754 0
417 1 Si 190.754 36.0605 1.62047 0
418 1 Si 54.9004 2.79325 1.62294 0
419 1 Si 57.0027 5.22499 1.61319 0
420 1 Si 56.4885 8.53817 1.62713 0
421 1 Si 50.5239 10.6549 1.61527 0
422 1 Si 53.9198 10.819 1.62762 0
423 1 Si 56.7526 0.0109119 1.62511 0
424 1 Si 54.5161 175.021 1.62042 0
425 1 Si 60.2103 4.03208 1.62583 0
426 1 Si 61.8538 6.75683 1.61927 0
427 1 Si 59.7278 9.26713 1.60688 0
428 1 Si 62.0637 1.14045 1.62434 0
429 1 Si 59.8135 175.977 1.62469 0
430 1 Si 7.02209 34.7244 1.64417 0
431 1 Si 7.26944 27.4409 1.65253 0
432 1 Si 10.1349 28.617 1.61563 0
433 1 Si 9.66951 32.1657 1.62105 0
434 1 Si 65.1434 7.2329 1.60985 0
435 1 Si 64.9441 10.5376 1.61659 0
436 1 Si 61.8163 11.7778 1.63202 0
437 1 Si 68.108 5.42777 1.6268 0
438 1 Si 67.9917 2.1255 1.61014 0
439 1 Si 65.3367 0.263882 1.612 0
440 1 Si 104.007 41.2309 1.61848 0
441 1 Si 101.384 39.5313 1.64042 0
442 1 Si 105.397 44.1413 1.65125 0
443 1 Si 108.64 43.303 1.61821 0
444 1 Si 71.2517 6.92153 1.62596 0
445 1 Si 70.6392 10.2659 1.61076 0
446 1 Si 67.8448 12.0755 1.61548 0
447 1 Si 74.5956 5.35977 1.64653 0
448 1 Si 75.0703 2.03646 1.61172 0
449 1 Si 69.9636 176.742 1.61648 0
450 1 Si 73.1871 176.438 1.62885 0
451 1 Si 77.8717 6.65933 1.6305 0
452 1 Si 78.2136 9.8569 1.63322 0
453 1 Si 72.8628 12.5927 1.6306 0
454 1 Si 75.9979 12.1525 1.62104 0
455 1 Si 81.0765 5.35137 1.6342 0
456 1 Si 81.2711 2.155 1.63334 0
457 1 Si 78.1592 0.895432 1.63444 0
458 1 Si 84.2448 6.52408 1.63926 0
459 1 Si 83.9716 9.67952 1.63109 0
460 1 Si 81.1695 11.1924 1.6376 0
461 1 Si 87.461 5.40667 1.64161 0
462 1 Si 87.7315 2.16481 1.64707 0
463 1 Si 84.4437 0.854375 1.62592 0
464 1 Si 117.204 39.7291 1.63352 0
465 1 Si 114.542 41.4711 1.63123 0
466 1 Si 120.217 40.6722 1.63085 0
467 1 Si 90.4704 6.94786 1.63085 0
468 1 Si 89.9335 10.048 1.64406 0
469 1 Si 86.8709 10.9167 1.63104 0
470 1 Si 93.7818 6.25374 1.62627 0
471 1 Si 94.2087 2.99483 1.63429 0
472 1 Si 91.1899 1.23633 1.62849 0
473 1 Si 97.4395 1.78408 1.60652 0
474 1 Si 100.782 174.681 1.6289 0
475 1 Si 97.7062 175.757 1.62455 0
476 1 Si 96.3739 8.51349 1.64776 0
477 1 Si 140.852 36.6307 1.59964 0
478 1 Si 136.306 39.3832 1.6077 0
479 1 Si 139.44 39.2847 1.62528 0
480 1 Si 38.1482 12.3197 1.63431 0
481 1 Si 43.6522 13.0364 1.62962 0
482 1 Si 40.4289 14.5266 1.62266 0
483 1 Si 173.775 40.0014 1.62841 0
484 1 Si 177.153 40.3298 1.6167 0
485 1 Si 95.5333 11.7487 1.62253 0
486 1 Si 92.4088 12.0282 1.63632 0
487 1 Si 96.3387 15.0386 1.63175 0
488 1 Si 99.4189 15.9586 1.62041 0
489 1 Si 131.146 42.6578 1.63878 0
490 1 Si 125.695 42.7306 1.63184 0
491 1 Si 128.468 44.4301 1.6442 0
492 1 Si 136.419 42.583 1.626 0
493 1 Si 133.874 44.4413 1.62685 0
494 1 Si 11.0533 13.5847 1.61148 0
495 1 Si 14.3596 14.1271 1.63682 0
496 1 Si 21.4906 14.5353 1.63563 0
497 1 Si 15.9317 17.0792 1.61781 0
498 1 Si 19.2768 16.9731 1.60944 0
499 1 Si 144.705 41.6921 1.63098 0
500 1 Si 145.619 44.7739 1.62018 0
501 1 Si 148.905 45.1356 1.62267 0
502 1 Si 24.8585 14.6648 1.62474 0
503 1 Si 34.8948 12.4324 1.61307 0
504 1 Si 32.0181 13.8863 1.62489 0
505 1 Si 167.919 41.8064 1.65426 0
506 1 Si 171.37 42.4887 1.62474 0
507 1 Si 178.382 43.3953 1.6182 0
508 1 Si 181.727 43.1331 1.62174 0
509 1 Si 49.1884 13.7523 1.62504 0
510 1 Si 46.0821 15.1981 1.62534 0
511 1 Si 188.005 41.8213 1.62361 0
512 1 Si 54.5935 14.1091 1.6214 0
513 1 Si 51.6802 15.7893 1.63654 0
514 1 Si 60.8998 15.0077 1.63419 0
515 1 Si 57.4705 15.8431 1.62889 0
516 1 Si 68.6059 15.3116 1.62392 0
517 1 Si 63.5498 17.3129 1.62674 0
518 1 Si 66.9587 18.133 1.63171 0
519 1 Si 5.20324 40.4508 1.63183 0
520 1 Si 7.7137 38.0756 1.64567 0
521 1 Si 71.8023 15.6542 1.61813 0
522 1 Si 103.366 46.8813 1.60936 0
523 1 Si 100.126 46.3583 1.63177 0
524 1 Si 98.431 40.3219 1.62198 0
525 1 Si 98.3145 43.6027 1.63771 0
526 1 Si 80.8204 14.334 1.61668 0
527 1 Si 77.7436 14.7715 1.60841 0
528 1 Si 113.926 44.6975 1.60531 0
529 1 Si 110.866 45.7774 1.60847 0
530 1 Si 86.6476 13.9302 1.61065 0
531 1 Si 82.2816 17.1537 1.61558 0
532 1 Si 85.2219 16.5995 1.64714 0
533 1 Si 120.233 44.0566 1.61419 0
534 1 Si 115.592 47.5379 1.62383 0
535 1 Si 118.782 47.1421 1.62997 0
536 1 Si 91.9989 15.0985 1.60801 0
537 1 Si 89.0788 15.7432 1.62571 0
538 1 Si 123.276 44.9087 1.63337 0
539 1 Si 141.475 41.7277 1.62131 0
540 1 Si 139.269 43.9826 1.6373 0
541 1 Si 38.9601 17.6718 1.61861 0
542 1 Si 45.0523 18.5045 1.63214 0
543 1 Si 41.7207 19.761 1.6374 0
544 1 Si 165.285 44.2413 1.65031 0
545 1 Si 172.785 45.6058 1.62393 0
546 1 Si 176.233 46.0064 1.62494 0
547 1 Si 73.7952 18.1741 1.62853 0
548 1 Si 76.9037 17.7299 1.63055 0
549 1 Si 186.994 45.0601 1.62344 0
550 1 Si 192.328 47.2129 1.61371 0
551 1 Si 189.096 47.6449 1.62526 0
552 1 Si 202.106 45.2525 1.62442 0
553 1 Si 0.531151 47.2402 1.63612 0
554 1 Si 3.68597 46.1226 1.61664 0
555 1 Si 5.98957 43.6595 1.63227 0
556 1 Si 94.0578 17.4458 1.59873 0
557 1 Si 128.682 47.7137 1.64484 0
558 1 Si 134.262 47.7045 1.63382 0
559 1 Si 131.49 49.3787 1.64306 0
560 1 Si 8.81398 19.9935 1.59637 0
561 1 Si 14.978 20.329 1.61511 0
562 1 Si 11.911 21.9808 1.63662 0
563 1 Si 143.175 47.1909 1.6247 0
564 1 Si 149.645 48.2774 1.62727 0
565 1 Si 147.356 50.4381 1.6186 0
566 1 Si 144.167 50.2387 1.62427 0
567 1 Si 20.5631 19.9622 1.63155 0
568 1 Si 17.929 22.0156 1.61308 0
569 1 Si 26.0889 17.7821 1.64024 0
570 1 Si 23.9154 20.3015 1.62072 0
571 1 Si 32.265 17.2084 1.63383 0
572 1 Si 29.2717 18.8233 1.61379 0
573 1 Si 35.4301 18.7659 1.64803 0
574 1 Si 164.783 47.8371 1.64597 0
575 1 Si 170.741 48.24 1.62212 0
576 1 Si 167.654 49.1909 1.61379 0
577 1 Si 50.8013 19.0396 1.64477 0
578 1 Si 47.7149 20.612 1.63006 0
579 1 Si 183.786 45.919 1.61308 0
580 1 Si 56.5261 19.0517 1.62322 0
581 1 Si 53.5693 20.7653 1.63325 0
582 1 Si 198.913 46.7084 1.62913 0
583 1 Si 62.4194 20.2792 1.61467 0
584 1 Si 59.2389 20.7187 1.6329 0
585 1 Si 103.058 50.22 1.61649 0
586 1 Si 100.238 51.9391 1.60405 0
587 1 Si 98.5108 49.1964 1.6128 0
588 1 Si 110.895 49.0735 1.62474 0
589 1 Si 108.418 51.0897 1.604 0
590 1 Si 105.461 52.2016 1.64294 0
591 1 Si 68.8753 21.2831 1.60003 0
592 1 Si 64.0546 23.0645 1.63475 0
593 1 Si 67.1492 24.0608 1.61747 0
594 1 Si 74.2169 21.3478 1.63376 0
595 1 Si 71.8073 23.3209 1.62889 0
596 1 Si 113.894 50.4154 1.61783 0
597 1 Si 78.8289 20.2304 1.63402 0
598 1 Si 81.9548 20.3399 1.62401 0
599 1 Si 87.6415 18.421 1.6139 0
600 1 Si 92.5299 20.3684 1.63882 0
601 1 Si 89.2977 20.9701 1.62853 0
602 1 Si 139.825 47.1523 1.627 0
603 1 Si 137.208 49.2732 1.6456 0
604 1 Si 152.6 49.5434 1.63814 0
605 1 Si 159.287 50.6812 1.6213 0
606 1 Si 162.594 50.8071 1.62381 0
607 1 Si 177.588 49.0312 1.63494 0
608 1 Si 183.494 49.3736 1.62264 0
609 1 Si 180.513 50.4983 1.63618 0
610 1 Si 77.0904 22.7925 1.63028 0
611 1 Si 93.9598 23.2129 1.62159 0
612 1 Si 97.1046 24.0174 1.61974 0
613 1 Si 194.058 49.9972 1.61636 0
614 1 Si 197.43 50.0519 1.65986 0
615 1 Si 188.684 50.9217 1.62304 0
616 1 Si 191.724 52.3288 1.62594 0
617 1 Si 203.884 50.4427 1.60876 0
618 1 Si 2.75838 51.4177 1.63134 0
619 1 Si 4.85751 49.0705 1.63038 0
620 1 Si 148.197 53.4907 1.63348 0
621 1 Si 142.859 53.2158 1.62341 0
622 1 Si 145.472 55.1134 1.62998 0
623 1 Si 12.3207 25.794 1.621 0
624 1 Si 18.2298 25.3663 1.626 0
625 1 Si 15.3549 27.3322 1.62243 0
626 1 Si 153.67 52.5323 1.631 0
627 1 Si 151.192 54.5991 1.63574 0
628 1 Si 25.9128 22.9374 1.62561 0
629 1 Si 21.3267 26.7296 1.61846 0
630 1 Si 24.6308 25.952 1.62714 0
631 1 Si 156.921 53.1329 1.61941 0
632 1 Si 29.1348 22.1011 1.61212 0
633 1 Si 34.9942 22.0647 1.63028 0
634 1 Si 32.0322 23.6655 1.62943 0
635 1 Si 170.981 51.4166 1.60963 0
636 1 Si 167.987 52.3805 1.60646 0
637 1 Si 175.806 51.6643 1.60577 0
638 1 Si 173.235 53.5523 1.62572 0
639 1 Si 41.1136 23.1598 1.6442 0
640 1 Si 37.7008 23.9577 1.61473 0
641 1 Si 47.174 24.0515 1.62821 0
642 1 Si 43.9196 25.3823 1.64178 0
643 1 Si 185.598 52.1105 1.62546 0
644 1 Si 52.9875 24.0953 1.63186 0
645 1 Si 50.0721 25.9288 1.6348 0
646 1 Si 58.6668 23.7393 1.62171 0
647 1 Si 55.9567 25.3398 1.62859 0
648 1 Si 198.908 53.3401 1.63172 0
649 1 Si 202.131 53.165 1.62806 0
650 1 Si 61.5573 24.9683 1.61137 0
651 1 Si 108.755 54.2175 1.6128 0
652 1 Si 105.799 55.3518 1.61007 0
653 1 Si 68.505 27.1894 1.61538 0
654 1 Si 73.4464 26.498 1.6335 0
655 1 Si 71.4495 28.9867 1.6217 0
656 1 Si 114.381 53.8015 1.633 0
657 1 Si 111.58 55.6758 1.62986 0
658 1 Si 86.9721 23.1999 1.62409 0
659 1 Si 83.6957 23.0695 1.64722 0
660 1 Si 88.5919 25.9409 1.63419 0
661 1 Si 91.8416 25.7174 1.62014 0
662 1 Si 131.519 52.6505 1.63919 0
663 1 Si 35.5815 26.5053 1.61772 0
664 1 Si 32.3039 26.9229 1.6192 0
665 1 Si 137.199 52.6638 1.62833 0
666 1 Si 134.307 54.3311 1.62584 0
667 1 Si 43.4285 28.8867 1.64307 0
668 1 Si 37.2645 29.0623 1.64414 0
669 1 Si 40.3368 29.5986 1.61572 0
670 1 Si 139.899 54.6255 1.62978 0
671 1 Si 163.165 54.2862 1.61634 0
672 1 Si 166.4 55.206 1.63351 0
673 1 Si 78.5826 25.6051 1.63457 0
674 1 Si 81.8398 25.771 1.6355 0
675 1 Si 177.393 54.3056 1.61714 0
676 1 Si 180.381 53.6883 1.61387 0
677 1 Si 96.6399 27.2811 1.62237 0
678 1 Si 99.277 29.0979 1.62035 0
679 1 Si 192.438 55.5496 1.62733 0
680 1 Si 198.319 56.8965 1.62804 0
681 1 Si 195.109 57.5863 1.62527 0
682 1 Si 15.4092 30.8025 1.63333 0
683 1 Si 12.8857 33.1991 1.62694 0
684 1 Si 21.1884 29.9898 1.63063 0
685 1 Si 18.5381 32.0031 1.63225 0
686 1 Si 3.0781 54.5447 1.62623 0
687 1 Si 0.082172 55.7247 1.62598 0
688 1 Si 145.615 58.2812 1.62717 0
689 1 Si 139.76 58.0357 1.63805 0
690 1 Si 142.671 59.8112 1.62686 0
691 1 Si 26.6279 28.5965 1.61529 0
692 1 Si 24.3092 30.9017 1.6247 0
693 1 Si 151.62 57.7757 1.63288 0
694 1 Si 148.719 59.4642 1.6375 0
695 1 Si 29.9141 29.347 1.63816 0
696 1 Si 157.603 56.4293 1.6376 0
697 1 Si 154.882 58.6405 1.62868 0
698 1 Si 161.024 57.0169 1.63967 0
699 1 Si 173.252 56.8317 1.63354 0
700 1 Si 167.909 58.3389 1.62791 0
701 1 Si 171.208 59.3906 1.62651 0
702 1 Si 176.38 57.233 1.60345 0
703 1 Si 50.261 29.4097 1.62637 0
704 1 Si 44.84 32.1571 1.62633 0
705 1 Si 48.1582 32.1362 1.62452 0
706 1 Si 57.6997 27.9892 1.63064 0
707 1 Si 53.1888 30.9601 1.60634 0
708 1 Si 56.51 30.8514 1.62486 0
709 1 Si 184.783 55.4679 1.62749 0
710 1 Si 189.893 57.5332 1.60777 0
711 1 Si 186.68 58.099 1.62804 0
712 1 Si 60.9103 27.9616 1.63063 0
713 1 Si 181.689 56.5487 1.61295 0
714 1 Si 6.15398 55.3351 1.64268 0
715 1 Si 7.91085 49.6752 1.62658 0
716 1 Si 8.2079 52.8521 1.60621 0
717 1 Si 203.589 58.9032 1.62317 0
718 1 Si 200.452 59.9099 1.60828 0
719 1 Si 66.5631 29.6638 1.65148 0
720 1 Si 63.423 29.8211 1.61696 0
721 1 Si 105.113 58.5048 1.63241 0
722 1 Si 102.059 59.8072 1.62947 0
723 1 Si 98.5892 54.8334 1.62969 0
724 1 Si 99.275 58.0741 1.6317 0
725 1 Si 111.004 58.9302 1.63145 0
726 1 Si 107.871 60.3598 1.64303 0
727 1 Si 76.5229 28.0542 1.62646 0
728 1 Si 83.2894 28.6542 1.63288 0
729 1 Si 86.5988 28.521 1.63777 0
730 1 Si 113.877 60.647 1.62694 0
731 1 Si 93.5532 28.404 1.61592 0
732 1 Si 133.986 57.5923 1.6271 0
733 1 Si 131.124 59.2961 1.62561 0
734 1 Si 136.667 59.4444 1.61478 0
735 1 Si 35.924 31.8836 1.59687 0
736 1 Si 30.5123 32.689 1.61693 0
737 1 Si 33.5419 33.9899 1.64205 0
738 1 Si 39.0138 32.4297 1.62092 0
739 1 Si 40.0578 35.3484 1.61446 0
740 1 Si 43.2853 35.4029 1.60935 0
741 1 Si 67.6794 32.6037 1.63021 0
742 1 Si 72.7677 32.2699 1.62702 0
743 1 Si 70.3312 34.3415 1.63113 0
744 1 Si 77.9664 31.1258 1.63016 0
745 1 Si 81.3289 31.3564 1.63942 0
746 1 Si 88.3269 31.1958 1.63265 0
747 1 Si 91.6363 31.0581 1.6352 0
748 1 Si 162.478 60.1851 1.62588 0
749 1 Si 165.807 60.9071 1.61978 0
750 1 Si 98.8616 32.3621 1.62378 0
751 1 Si 179.199 58.7384 1.63935 0
752 1 Si 191.053 60.4454 1.62277 0
753 1 Si 194.216 60.7544 1.63024 0
754 1 Si 19.0531 35.2682 1.63919 0
755 1 Si 13.5068 36.5835 1.62934 0
756 1 Si 16.7086 37.6634 1.63808 0
757 1 Si 143.078 63.119 1.63778 0
758 1 Si 135.094 62.4068 1.61684 0
759 1 Si 140.529 65.1828 1.61424 0
760 1 Si 137.188 64.8934 1.63553 0
761 1 Si 148.865 62.6733 1.63887 0
762 1 Si 146.117 64.5408 1.63438 0
763 1 Si 24.9113 34.0373 1.62945 0
764 1 Si 22.2485 35.9736 1.62814 0
765 1 Si 154.892 61.9499 1.62838 0
766 1 Si 152.012 63.5946 1.61742 0
767 1 Si 28.0849 34.928 1.63764 0
768 1 Si 160.758 63.012 1.63863 0
769 1 Si 157.629 63.7047 1.63205 0
770 1 Si 172.562 62.6497 1.64367 0
771 1 Si 179.073 61.98 1.61621 0
772 1 Si 175.901 63.743 1.62768 0
773 1 Si 185.63 61.289 1.63077 0
774 1 Si 188.66 62.5659 1.63329 0
775 1 Si 52.6909 34.0984 1.61902 0
776 1 Si 49.6447 35.1406 1.61786 0
777 1 Si 1.89275 61.1099 1.61969 0
778 1 Si 200.646 63.5514 1.62598 0
779 1 Si 1.77575 64.3354 1.62464 0
780 1 Si 203.118 65.9277 1.6256 0
781 1 Si 59.2782 32.7128 1.62261 0
782 1 Si 55.4574 35.6158 1.6177 0
783 1 Si 58.6979 35.7479 1.61981 0
784 1 Si 5.03181 60.776 1.63829 0
785 1 Si 6.97497 58.3915 1.62036 0
786 1 Si 107.171 63.6568 1.63161 0
787 1 Si 104.147 65.1144 1.63786 0
788 1 Si 101.548 63.0826 1.62306 0
789 1 Si 62.502 32.8111 1.61717 0
790 1 Si 112.767 63.8664 1.62543 0
791 1 Si 109.825 65.52 1.63016 0
792 1 Si 65.1802 34.5062 1.64912 0
793 1 Si 120.128 64.2133 1.61275 0
794 1 Si 114.641 66.4319 1.63142 0
795 1 Si 117.808 66.3842 1.62796 0
796 1 Si 75.8791 33.7176 1.62464 0
797 1 Si 125.529 63.812 1.62851 0
798 1 Si 122.966 65.8401 1.61796 0
799 1 Si 83.1888 34.0511 1.62003 0
800 1 Si 86.4105 33.7736 1.62827 0
801 1 Si 131.635 62.5924 1.62127 0
802 1 Si 128.954 65.0919 1.64622 0
803 1 Si 93.1087 33.8782 1.62377 0
804 1 Si 96.3201 34.4876 1.64449 0
805 1 Si 11.0265 38.9073 1.63997 0
806 1 Si 34.6425 37.1062 1.61689 0
807 1 Si 28.5539 38.134 1.627 0
808 1 Si 30.5353 40.7308 1.63201 0
809 1 Si 33.6582 40.2563 1.6215 0
810 1 Si 37.7946 37.6569 1.6383 0
811 1 Si 167.08 64.0526 1.64141 0
812 1 Si 170.22 65.118 1.64355 0
813 1 Si 162.046 65.9942 1.6234 0
814 1 Si 165.11 66.6638 1.6333 0
815 1 Si 66.2561 37.4823 1.62722 0
816 1 Si 69.5271 37.4955 1.62729 0
817 1 Si 182.464 62.8079 1.6229 0
818 1 Si 176.076 67.1771 1.6348 0
819 1 Si 182.153 66.0311 1.62469 0
820 1 Si 179.31 67.7749 1.62692 0
821 1 Si 77.0515 36.9229 1.61098 0
822 1 Si 82.8038 37.2741 1.61774 0
823 1 Si 79.9022 38.5243 1.61776 0
824 1 Si 87.9223 36.57 1.62329 0
825 1 Si 91.1177 36.4127 1.61921 0
826 1 Si 195.273 63.8351 1.63127 0
827 1 Si 189.893 65.5193 1.64264 0
828 1 Si 193.053 66.1306 1.63838 0
829 1 Si 198.061 65.5596 1.6241 0
830 1 Si 96.4498 37.7313 1.61316 0
831 1 Si 4.63663 65.7481 1.62181 0
832 1 Si 6.70626 63.4481 1.62573 0
833 1 Si 103.247 68.3116 1.64958 0
834 1 Si 109.71 68.8701 1.62502 0
835 1 Si 107.778 71.6868 1.63611 0
836 1 Si 104.492 71.3093 1.62417 0
837 1 Si 17.6026 40.9426 1.62635 0
838 1 Si 11.9377 42.1378 1.63864 0
839 1 Si 15.1937 43.2503 1.62999 0
840 1 Si 141.395 68.3578 1.61493 0
841 1 Si 135.674 67.7129 1.61036 0
842 1 Si 138.406 69.3742 1.62517 0
843 1 Si 22.8496 39.0605 1.61981 0
844 1 Si 20.8534 41.5737 1.61553 0
845 1 Si 146.535 67.8364 1.61704 0
846 1 Si 144.232 70.21 1.63445 0
847 1 Si 25.9041 39.7935 1.63414 0
848 1 Si 152.037 66.7343 1.62466 0
849 1 Si 149.584 68.7587 1.64592 0
850 1 Si 157.493 66.9076 1.62358 0
851 1 Si 154.752 68.2955 1.63077 0
852 1 Si 160.139 68.5611 1.62961 0
853 1 Si 43.5337 38.8135 1.62446 0
854 1 Si 38.3123 40.8491 1.63115 0
855 1 Si 41.454 41.403 1.61513 0
856 1 Si 170.676 68.5251 1.64115 0
857 1 Si 173.633 69.8723 1.62411 0
858 1 Si 48.9356 38.4057 1.64768 0
859 1 Si 46.3198 40.3379 1.62697 0
860 1 Si 56.1015 38.6086 1.63423 0