ITEM: TIMESTEP
2552
ITEM: NUMBER OF ATOMS
15552
ITEM: BOX BOUNDS pp pp pp
0.0000000000000000e+00 2.0431249800461723e+02
0.0000000000000000e+00 1.7730520770169866e+02
-1.0000000000000000e+02 1.0000000000000000e+02
ITEM: ATOMS id type element x y z v_uncoordination
1 1 Si 163.304 50.2913 1.63602 0
2 1 Si 164.871 47.3306 1.61453 0
3 1 Si 160.071 49.9098 1.61696 0
4 1 Si 162.846 44.8202 1.61231 0
5 1 Si 160.246 46.6819 1.61527 0
6 1 Si 164.036 53.4717 1.62369 0
7 1 Si 167.84 45.9786 1.63023 0
8 1 Si 170.049 48.4521 1.63776 0
9 1 Si 169.877 51.765 1.58287 0
10 1 Si 169.411 55.044 1.64882 0
11 1 Si 166.372 55.5832 1.63403 0
12 1 Si 157.265 51.7471 1.64591 0
13 1 Si 157.133 55.1194 1.62875 0
14 1 Si 162.539 56.3237 1.6184 0
15 1 Si 159.552 57.439 1.61751 0
16 1 Si 186.791 43.1716 1.63042 0
17 1 Si 187.032 39.9798 1.62283 0
18 1 Si 183.901 44.5064 1.63957 0
19 1 Si 184.065 38.7101 1.62346 0
20 1 Si 181.166 40.1401 1.628 0
21 1 Si 180.907 43.3186 1.64781 0
22 1 Si 188.914 45.6332 1.63313 0
23 1 Si 189.889 38.3263 1.62011 0
24 1 Si 192.194 40.9857 1.63316 0
25 1 Si 191.977 44.5758 1.6377 0
26 1 Si 184.495 47.6117 1.61889 0
27 1 Si 187.533 48.6349 1.61282 0
28 1 Si 202.759 42.8882 1.61908 0
29 1 Si 1.52519 42.122 1.62703 0
30 1 Si 200.11 41.1824 1.62577 0
31 1 Si 202.726 36.2907 1.63953 0
32 1 Si 1.64523 36.5931 1.62213 0
33 1 Si 199.947 38.0038 1.61446 0
34 1 Si 3.12256 39.4234 1.62519 0
35 1 Si 202.499 46.0805 1.6193 0
36 1 Si 3.38498 44.6892 1.62241 0
37 1 Si 1.21418 47.0324 1.64955 0
38 1 Si 197.288 42.7181 1.61508 0
39 1 Si 197.04 46.017 1.62528 0
40 1 Si 199.793 47.8606 1.62266 0
41 1 Si 107.592 2.60952 1.64716 0
42 1 Si 110.576 3.45835 1.58858 0
43 1 Si 105.696 5.18402 1.64629 0
44 1 Si 111.28 6.47801 1.60355 0
45 1 Si 106.207 8.3119 1.61029 0
46 1 Si 109.309 8.85484 1.61393 0
47 1 Si 106.768 176.854 1.63143 0
48 1 Si 113.669 3.79362 1.5953 0
49 1 Si 115.448 1.3367 1.57837 0
50 1 Si 111.887 173.577 1.63622 0
51 1 Si 114.475 175.547 1.61208 0
52 1 Si 108.797 174.461 1.61621 0
53 1 Si 102.771 4.23377 1.59549 0
54 1 Si 102.002 1.23621 1.60621 0
55 1 Si 103.701 176.008 1.61154 0
56 1 Si 114.363 6.82874 1.58952 0
57 1 Si 120.783 5.01599 1.64308 0
58 1 Si 118.128 3.19465 1.5809 0
59 1 Si 121.067 8.17663 1.61685 0
60 1 Si 115.514 9.72118 1.66472 0
61 1 Si 118.569 10.0452 1.59175 0
62 1 Si 123.382 3.14856 1.61555 0
63 1 Si 119.059 0.230389 1.61684 0
64 1 Si 122.149 0.242209 1.60958 0
65 1 Si 128.167 6.1997 1.61636 0
66 1 Si 126.586 3.29604 1.63708 0
67 1 Si 127.65 9.553 1.60911 0
68 1 Si 122.744 10.8747 1.62442 0
69 1 Si 125.604 12.2743 1.63171 0
70 1 Si 133.07 2.77962 1.62349 0
71 1 Si 131.394 5.58271 1.62298 0
72 1 Si 131.316 0.0677719 1.61432 0
73 1 Si 128.077 0.301071 1.63315 0
74 1 Si 136.217 1.81763 1.6172 0
75 1 Si 138.95 3.59259 1.6336 0
76 1 Si 138.525 6.80632 1.62432 0
77 1 Si 132.81 8.44558 1.622 0
78 1 Si 135.982 8.78536 1.61738 0
79 1 Si 136.57 175.845 1.61922 0
80 1 Si 133.405 174.846 1.63107 0
81 1 Si 142.017 2.25161 1.62969 0
82 1 Si 144.702 4.18456 1.64606 0
83 1 Si 144.116 7.44658 1.64117 0
84 1 Si 141.138 8.70073 1.61871 0
85 1 Si 142.501 176.289 1.62633 0
86 1 Si 139.652 174.428 1.62796 0
87 1 Si 147.811 2.94555 1.64008 0
88 1 Si 148.522 176.97 1.64358 0
89 1 Si 145.703 175.123 1.64241 0
90 1 Si 150.237 5.19777 1.63643 0
91 1 Si 149.457 8.50334 1.63913 0
92 1 Si 146.405 9.78177 1.63893 0
93 1 Si 153.349 3.96742 1.63268 0
94 1 Si 154.273 0.641364 1.63507 0
95 1 Si 151.74 175.68 1.63016 0
96 1 Si 155.548 6.46217 1.64609 0
97 1 Si 154.813 9.72839 1.6518 0
98 1 Si 151.715 10.8894 1.6429 0
99 1 Si 158.693 5.53862 1.63829 0
100 1 Si 159.497 2.37752 1.62151 0
101 1 Si 157.588 177.044 1.61577 0
102 1 Si 164.732 3.72544 1.64035 0
103 1 Si 167.716 2.69446 1.61762 0
104 1 Si 164.148 6.93075 1.63405 0
105 1 Si 170.107 4.81892 1.62003 0
106 1 Si 169.731 8.02145 1.61974 0
107 1 Si 166.624 9.10072 1.63635 0
108 1 Si 162.557 1.38987 1.62165 0
109 1 Si 168.561 176.889 1.61869 0
110 1 Si 166.381 174.416 1.64386 0
111 1 Si 163.121 175.478 1.61936 0
112 1 Si 161.033 7.85841 1.63647 0
113 1 Si 172.642 2.85287 1.62355 0
114 1 Si 171.781 177.008 1.62914 0
115 1 Si 175.197 7.89777 1.63558 0
116 1 Si 175.418 4.43783 1.62693 0
117 1 Si 172.439 9.92753 1.6135 0
118 1 Si 180.327 7.15023 1.61494 0
119 1 Si 180.505 3.89632 1.63499 0
120 1 Si 178.072 9.44264 1.63245 0
121 1 Si 177.744 1.97034 1.62367 0
122 1 Si 190.575 5.60417 1.61354 0
123 1 Si 188.231 7.8374 1.62504 0
124 1 Si 192.979 7.6254 1.60729 0
125 1 Si 192.672 10.7468 1.59116 0
126 1 Si 189.476 10.9637 1.63616 0
127 1 Si 185.216 6.54948 1.6264 0
128 1 Si 183.797 3.48185 1.62579 0
129 1 Si 191.218 2.42026 1.64287 0
130 1 Si 188.638 0.153558 1.61295 0
131 1 Si 185.117 0.387803 1.63892 0
132 1 Si 183.015 8.9189 1.60541 0
133 1 Si 195.986 7.02029 1.61224 0
134 1 Si 197.177 4.15204 1.61708 0
135 1 Si 194.608 2.10385 1.6394 0
136 1 Si 198.008 9.41297 1.59863 0
137 1 Si 195.747 11.67 1.65302 0
138 1 Si 200.391 4.84797 1.63294 0
139 1 Si 200.923 8.08187 1.63868 0
140 1 Si 202.517 2.3762 1.63973 0
141 1 Si 2.03918 2.9406 1.63328 0
142 1 Si 2.46419 9.11806 1.62642 0
143 1 Si 3.75156 6.00716 1.63335 0
144 1 Si 203.587 9.93529 1.64776 0
145 1 Si 199.801 177.21 1.63059 0
146 1 Si 196.225 176.67 1.63627 0
147 1 Si 4.34095 0.28974 1.62654 0
148 1 Si 203.845 173.395 1.62263 0
149 1 Si 200.656 174.104 1.63671 0
150 1 Si 2.58068 174.734 1.6125 0
151 1 Si 4.80649 11.507 1.6178 0
152 1 Si 7.51662 9.89056 1.61922 0
153 1 Si 7.05616 6.66635 1.62791 0
154 1 Si 104.343 10.9331 1.63509 0
155 1 Si 101.13 10.5883 1.62422 0
156 1 Si 97.2995 5.67556 1.63575 0
157 1 Si 98.7318 8.48969 1.58277 0
158 1 Si 99.7338 3.90358 1.64861 0
159 1 Si 110.451 11.7238 1.60708 0
160 1 Si 113.55 12.1783 1.60439 0
161 1 Si 130.612 10.8149 1.61099 0
162 1 Si 136.974 11.8549 1.61322 0
163 1 Si 140.218 11.8293 1.6354 0
164 1 Si 160.336 11.0804 1.64677 0
165 1 Si 157.171 12.0392 1.65357 0
166 1 Si 166.008 12.3247 1.64551 0
167 1 Si 162.808 13.2911 1.641 0
168 1 Si 182.612 12.1828 1.63426 0
169 1 Si 179.297 12.5608 1.62328 0
170 1 Si 188.3 14.0198 1.62312 0
171 1 Si 185.045 14.5171 1.61949 0
172 1 Si 196.887 14.5879 1.63803 0
173 1 Si 202.824 13.0906 1.64376 0
174 1 Si 200.047 14.6531 1.61061 0
175 1 Si 108.864 14.4711 1.6364 0
176 1 Si 105.702 13.9467 1.63015 0
177 1 Si 120.184 12.7015 1.59811 0
178 1 Si 131.389 13.9273 1.62539 0
179 1 Si 134.68 14.1417 1.63671 0
180 1 Si 145.522 13.0375 1.62419 0
181 1 Si 142.411 14.2378 1.62435 0
182 1 Si 150.85 14.1507 1.64593 0
183 1 Si 147.757 15.4261 1.64493 0
184 1 Si 156.341 15.2575 1.64622 0
185 1 Si 153.21 16.4215 1.64664 0
186 1 Si 171.851 13.3253 1.63496 0
187 1 Si 168.582 14.455 1.63146 0
188 1 Si 177.741 15.5701 1.64301 0
189 1 Si 174.243 15.763 1.62814 0
190 1 Si 195.532 17.4828 1.60705 0
191 1 Si 189.954 16.907 1.59607 0
192 1 Si 192.644 18.7711 1.63128 0
193 1 Si 0.442026 15.5875 1.6191 0
194 1 Si 5.88691 14.7205 1.63253 0
195 1 Si 3.39352 16.6236 1.63264 0
196 1 Si 113.555 15.3385 1.62586 0
197 1 Si 110.828 17.0535 1.61514 0
198 1 Si 119.138 15.6538 1.63257 0
199 1 Si 116.226 16.9455 1.6336 0
200 1 Si 125.944 15.7775 1.62062 0
201 1 Si 129.161 16.3976 1.62477 0
202 1 Si 135.725 17.1186 1.62723 0
203 1 Si 141.616 17.4961 1.62276 0
204 1 Si 138.571 18.5933 1.63347 0
205 1 Si 162 16.4947 1.64065 0
206 1 Si 158.803 17.4303 1.63941 0
207 1 Si 167.624 17.6948 1.63146 0
208 1 Si 164.452 18.7177 1.63355 0
209 1 Si 179.756 18.4139 1.62912 0
210 1 Si 185.143 17.8108 1.63541 0
211 1 Si 182.856 20.0416 1.6407 0
212 1 Si 200.314 17.8102 1.62682 0
213 1 Si 197.83 19.6843 1.61471 0
214 1 Si 203.331 18.4145 1.62708 0
215 1 Si 10.0337 11.8708 1.62724 0
216 1 Si 11.0542 14.9494 1.63414 0
217 1 Si 8.54478 16.8845 1.63523 0
218 1 Si 104.026 16.713 1.63205 0
219 1 Si 100.816 16.0468 1.63248 0
220 1 Si 99.2961 13.2341 1.62143 0
221 1 Si 110.903 20.3906 1.6351 0
222 1 Si 105.327 19.759 1.6108 0
223 1 Si 107.974 21.7761 1.63646 0
224 1 Si 121.011 18.1735 1.61561 0
225 1 Si 124.129 18.82 1.63884 0
226 1 Si 130.205 19.4621 1.63299 0
227 1 Si 133.353 19.2114 1.62188 0
228 1 Si 146.847 18.7112 1.64747 0
229 1 Si 143.765 20.0552 1.61827 0
230 1 Si 152.309 19.6592 1.65034 0
231 1 Si 149.204 20.9862 1.64918 0
232 1 Si 172.84 18.8178 1.62617 0
233 1 Si 169.809 20.1599 1.63331 0
234 1 Si 177.916 20.9752 1.63169 0
235 1 Si 174.771 21.3046 1.62622 0
236 1 Si 187.949 19.414 1.59641 0
237 1 Si 192.504 22.0916 1.62889 0
238 1 Si 189.271 22.4206 1.63519 0
239 1 Si 0.677368 21.0552 1.6168 0
240 1 Si 3.62795 19.8158 1.61702 0
241 1 Si 116.083 20.1292 1.62445 0
242 1 Si 119.162 20.7296 1.60249 0
243 1 Si 168.06 42.5308 1.62201 0
244 1 Si 165.739 40.0609 1.63263 0
245 1 Si 162.826 41.5393 1.63611 0
246 1 Si 170.792 40.7969 1.62755 0
247 1 Si 173.801 41.9716 1.63111 0
248 1 Si 175.031 44.9411 1.64263 0
249 1 Si 173.175 47.6094 1.61391 0
250 1 Si 124.101 22.3714 1.63107 0
251 1 Si 129.601 22.702 1.62611 0
252 1 Si 126.881 24.5626 1.63468 0
253 1 Si 134.707 21.9796 1.64708 0
254 1 Si 137.819 21.7165 1.61211 0
255 1 Si 157.943 20.5901 1.6346 0
256 1 Si 154.82 21.7364 1.62801 0
257 1 Si 163.692 21.9376 1.62672 0
258 1 Si 160.492 22.64 1.62887 0
259 1 Si 184.288 23.3037 1.65233 0
260 1 Si 179.099 23.8419 1.6176 0
261 1 Si 181.823 25.33 1.61977 0
262 1 Si 194.961 24.3768 1.6256 0
263 1 Si 197.888 22.8601 1.61424 0
264 1 Si 113.692 22.2847 1.63067 0
265 1 Si 120.826 23.4462 1.60591 0
266 1 Si 132.485 24.1804 1.62256 0
267 1 Si 142.809 23.4232 1.6382 0
268 1 Si 139.539 24.4227 1.62215 0
269 1 Si 148.284 24.2527 1.61439 0
270 1 Si 145.2 25.7959 1.62371 0
271 1 Si 154.018 24.9393 1.62997 0
272 1 Si 150.957 26.1623 1.61607 0
273 1 Si 169.049 23.519 1.63262 0
274 1 Si 165.893 24.4756 1.62844 0
275 1 Si 173.985 24.3898 1.63154 0
276 1 Si 171.275 26.0493 1.63344 0
277 1 Si 187.32 25.0654 1.6368 0
278 1 Si 188.264 28.6095 1.62242 0
279 1 Si 195.319 27.7034 1.61841 0
280 1 Si 190.586 31.3727 1.63223 0
281 1 Si 193.921 30.9194 1.63395 0
282 1 Si 203.887 24.0889 1.64079 0
283 1 Si 200.585 24.6404 1.6201 0
284 1 Si 2.28911 26.0292 1.62493 0
285 1 Si 5.43286 24.8141 1.6342 0
286 1 Si 6.22212 21.6535 1.61975 0
287 1 Si 103.087 22.0281 1.61412 0
288 1 Si 100.036 21.2095 1.63571 0
289 1 Si 98.6628 18.3447 1.61479 0
290 1 Si 107.543 25.0944 1.61737 0
291 1 Si 104.317 24.9958 1.62129 0
292 1 Si 118.327 25.7866 1.62697 0
293 1 Si 114.833 25.4912 1.63033 0
294 1 Si 119.352 28.8763 1.63793 0
295 1 Si 122.261 30.3026 1.61792 0
296 1 Si 127.79 28.0393 1.62692 0
297 1 Si 125.488 30.6174 1.64903 0
298 1 Si 133.862 27.0308 1.62532 0
299 1 Si 137.307 27.0379 1.64573 0
300 1 Si 159.669 25.7074 1.62287 0
301 1 Si 156.656 26.7691 1.61307 0
302 1 Si 164.936 27.7005 1.62935 0
303 1 Si 161.761 28.0969 1.63042 0
304 1 Si 176.713 25.8588 1.62107 0
305 1 Si 180.651 28.3407 1.63806 0
306 1 Si 185.821 30.6893 1.60773 0
307 1 Si 182.641 30.7763 1.63661 0
308 1 Si 198.544 27.156 1.6228 0
309 1 Si 109.189 28.0595 1.64568 0
310 1 Si 112.584 28.1779 1.62373 0
311 1 Si 116.97 31.1048 1.60819 0
312 1 Si 121.191 33.269 1.62472 0
313 1 Si 118.215 33.9937 1.6164 0
314 1 Si 131.126 29.0006 1.61752 0
315 1 Si 144.585 29.2597 1.63618 0
316 1 Si 138.427 30.1102 1.63821 0
317 1 Si 141.66 31.1337 1.64042 0
318 1 Si 150.333 29.3215 1.62668 0
319 1 Si 147.479 30.8779 1.61511 0
320 1 Si 157.478 29.8204 1.62301 0
321 1 Si 152.661 31.4574 1.6057 0
322 1 Si 155.685 32.3269 1.63996 0
323 1 Si 171.666 29.4554 1.6309 0
324 1 Si 166.067 30.8376 1.62629 0
325 1 Si 169.184 31.7155 1.63394 0
326 1 Si 177.44 28.8814 1.61909 0
327 1 Si 174.781 30.7536 1.63695 0
328 1 Si 200.175 29.7487 1.63896 0
329 1 Si 203.195 30.5202 1.6351 0
330 1 Si 1.83666 29.2734 1.63849 0
331 1 Si 102.232 27.4441 1.63633 0
332 1 Si 97.7992 23.3979 1.61088 0
333 1 Si 99.0523 26.4222 1.64736 0
334 1 Si 107.186 30.8135 1.61713 0
335 1 Si 103.91 30.2963 1.62032 0
336 1 Si 113.775 31.3127 1.62915 0
337 1 Si 132.447 31.9586 1.64139 0
338 1 Si 135.733 32.0562 1.62012 0
339 1 Si 160.436 30.9483 1.61693 0
340 1 Si 164.567 33.8069 1.63568 0
341 1 Si 161.407 33.9951 1.63118 0
342 1 Si 186.557 33.7828 1.60714 0
343 1 Si 189.597 34.7667 1.61341 0
344 1 Si 198.765 32.4995 1.59371 0
345 1 Si 195.894 33.7723 1.63334 0
346 1 Si 201.779 33.3324 1.61681 0
347 1 Si 107.438 34.173 1.62653 0
348 1 Si 112.456 34.4192 1.61376 0
349 1 Si 109.818 36.4618 1.63286 0
350 1 Si 125.625 33.9936 1.61845 0
351 1 Si 122.914 35.8099 1.61682 0
352 1 Si 130.971 34.9014 1.60375 0
353 1 Si 127.968 36.1741 1.65252 0
354 1 Si 135.937 35.2299 1.62749 0
355 1 Si 133.335 37.0684 1.61512 0
356 1 Si 141.48 34.4196 1.6088 0
357 1 Si 138.855 36.2199 1.60423 0
358 1 Si 148.565 33.9085 1.63232 0
359 1 Si 142.642 37.3656 1.63341 0
360 1 Si 147.733 36.895 1.59701 0
361 1 Si 145.343 38.851 1.62599 0
362 1 Si 151.685 34.4078 1.60582 0
363 1 Si 168.965 35.0404 1.60528 0
364 1 Si 166.139 36.6859 1.60381 0
365 1 Si 175.598 33.8816 1.63163 0
366 1 Si 173.965 36.614 1.60778 0
367 1 Si 170.972 37.5309 1.6349 0
368 1 Si 181.411 33.7139 1.6124 0
369 1 Si 178.569 35.0944 1.62377 0
370 1 Si 183.984 35.5645 1.62633 0
371 1 Si 4.40626 31.2574 1.62622 0
372 1 Si 4.12671 34.5024 1.62319 0
373 1 Si 7.33644 29.7666 1.62366 0
374 1 Si 8.17915 26.6101 1.6384 0
375 1 Si 104.548 35.6089 1.61425 0
376 1 Si 102.436 33.1367 1.62543 0
377 1 Si 117.118 36.9141 1.62501 0
378 1 Si 114.067 37.1725 1.60927 0
379 1 Si 121.55 38.7387 1.64311 0
380 1 Si 118.497 39.7527 1.59737 0
381 1 Si 10.6029 1.91693 1.63463 0
382 1 Si 9.99151 5.17213 1.63411 0
383 1 Si 7.91221 177.226 1.63351 0
384 1 Si 13.8011 0.759643 1.62279 0
385 1 Si 16.178 2.88858 1.62351 0
386 1 Si 15.6241 6.02301 1.62219 0
387 1 Si 12.6395 7.12156 1.63267 0
388 1 Si 15.251 175.031 1.63496 0
389 1 Si 9.4913 174.323 1.6164 0
390 1 Si 12.5487 173.171 1.6148 0
391 1 Si 19.3351 2.3504 1.61286 0
392 1 Si 20.6034 5.34119 1.61734 0
393 1 Si 18.3459 7.77229 1.63038 0
394 1 Si 20.8313 176.787 1.62953 0
395 1 Si 18.6226 174.26 1.62474 0
396 1 Si 23.8848 5.15609 1.62548 0
397 1 Si 25.9256 2.37046 1.6253 0
398 1 Si 24.192 176.773 1.63014 0
399 1 Si 36.2469 4.5467 1.62176 0
400 1 Si 33.8936 6.86139 1.63833 0
401 1 Si 38.8934 6.31446 1.60519 0
402 1 Si 40.1186 9.22325 1.64201 0
403 1 Si 35.5334 10.0944 1.63421 0
404 1 Si 38.67 11.9596 1.63473 0
405 1 Si 30.6053 5.60535 1.63364 0
406 1 Si 29.4359 2.34924 1.63168 0
407 1 Si 37.2067 1.31078 1.63624 0
408 1 Si 35.0144 175.91 1.63426 0
409 1 Si 31.3791 176.653 1.63162 0
410 1 Si 28.061 7.78321 1.59785 0
411 1 Si 24.7658 8.2816 1.61523 0
412 1 Si 156.655 35.3599 1.63427 0
413 1 Si 153.816 36.6911 1.63385 0
414 1 Si 41.4336 4.45139 1.62014 0
415 1 Si 40.628 1.3407 1.6254 0
416 1 Si 43.8866 6.42638 1.60871 0
417 1 Si 43.2283 9.50556 1.59972 0
418 1 Si 47.0017 6.92603 1.63211 0
419 1 Si 48.0763 4.02622 1.61517 0
420 1 Si 46.4644 1.18309 1.60409 0
421 1 Si 43.4475 176.798 1.64158 0
422 1 Si 159.553 36.6765 1.63554 0
423 1 Si 48.353 9.83938 1.62479 0
424 1 Si 45.6568 11.5063 1.63875 0
425 1 Si 51.2866 4.02933 1.60376 0
426 1 Si 49.7149 1.24907 1.64726 0
427 1 Si 53.8134 6.01694 1.62639 0
428 1 Si 53.7609 9.22928 1.61272 0
429 1 Si 51.238 11.3253 1.63665 0
430 1 Si 57.027 5.98709 1.62338 0
431 1 Si 59.4158 3.77802 1.63322 0
432 1 Si 57.8523 0.570283 1.61357 0
433 1 Si 51.4815 175.996 1.63533 0
434 1 Si 54.8108 176.227 1.60485 0
435 1 Si 56.9807 9.18371 1.61371 0
436 1 Si 62.8072 5.17923 1.63197 0
437 1 Si 64.6516 2.41216 1.62992 0
438 1 Si 63.222 176.732 1.61363 0
439 1 Si 60.2195 175.574 1.61868 0
440 1 Si 64.5956 8.53895 1.62288 0
441 1 Si 59.0939 11.6352 1.63762 0
442 1 Si 62.5165 11.2162 1.61023 0
443 1 Si 67.8638 1.69753 1.60057 0
444 1 Si 68.0549 175.794 1.63126 0
445 1 Si 65.3317 174.221 1.62294 0
446 1 Si 71.1126 2.20986 1.64015 0
447 1 Si 72.3709 5.18443 1.62779 0
448 1 Si 71.1543 8.33258 1.63637 0
449 1 Si 67.9804 10.0019 1.62769 0
450 1 Si 73.0939 176.81 1.5968 0
451 1 Si 70.9447 174.473 1.59916 0
452 1 Si 196.79 37.0607 1.62333 0
453 1 Si 195.33 40.0658 1.62802 0
454 1 Si 75.6145 4.77106 1.61378 0
455 1 Si 76.7476 7.66943 1.60835 0
456 1 Si 74.2043 9.64493 1.62113 0
457 1 Si 78.342 3.10227 1.63595 0
458 1 Si 78.3599 177.281 1.6286 0
459 1 Si 76.0267 175.214 1.63224 0
460 1 Si 81.4624 3.92671 1.63506 0
461 1 Si 82.5911 6.8826 1.63904 0
462 1 Si 79.8294 8.56732 1.63683 0
463 1 Si 83.4234 1.46204 1.60789 0
464 1 Si 81.3432 176.406 1.61525 0
465 1 Si 88.4229 5.36932 1.62157 0
466 1 Si 89.0932 1.74945 1.63415 0
467 1 Si 86.3187 0.150597 1.64102 0
468 1 Si 85.7927 7.54117 1.63389 0
469 1 Si 94.6697 3.83496 1.60571 0
470 1 Si 93.6517 6.99161 1.64212 0
471 1 Si 94.3408 0.4433 1.63613 0
472 1 Si 90.5742 7.91205 1.62623 0
473 1 Si 91.4274 176.251 1.62529 0
474 1 Si 82.9198 173.751 1.60454 0
475 1 Si 86.0801 174.23 1.62185 0
476 1 Si 109.933 40.0187 1.62851 0
477 1 Si 113.186 40.2369 1.60768 0
478 1 Si 95.7327 9.53424 1.59751 0
479 1 Si 98.9268 0.911253 1.58996 0
480 1 Si 96.9987 175.766 1.63905 0
481 1 Si 101.795 173.449 1.6271 0
482 1 Si 98.5726 172.863 1.63245 0
483 1 Si 126.992 39.3167 1.61445 0
484 1 Si 124.042 40.5754 1.62419 0
485 1 Si 12.7398 10.3131 1.62325 0
486 1 Si 133.287 40.2776 1.62268 0
487 1 Si 128.274 42.2344 1.65149 0
488 1 Si 131.316 42.8245 1.62326 0
489 1 Si 18.1016 11.0675 1.63508 0
490 1 Si 15.1837 12.3895 1.62811 0
491 1 Si 140.064 39.0894 1.60277 0
492 1 Si 135.802 42.1871 1.60518 0
493 1 Si 138.974 41.995 1.65013 0
494 1 Si 27.9731 10.9072 1.64367 0
495 1 Si 23.1635 11.3347 1.62991 0
496 1 Si 25.7158 13.1617 1.62847 0
497 1 Si 33.5065 12.502 1.60467 0
498 1 Si 30.4173 12.6563 1.59705 0
499 1 Si 149.41 39.5416 1.59472 0
500 1 Si 146.957 41.546 1.62826 0
501 1 Si 152.526 39.5529 1.63655 0
502 1 Si 178.567 38.3106 1.63694 0
503 1 Si 175.603 39.3456 1.61295 0
504 1 Si 6.84064 36.2664 1.62315 0
505 1 Si 9.88047 31.6137 1.62022 0
506 1 Si 9.63297 34.7896 1.62402 0
507 1 Si 6.32765 39.4073 1.6263 0
508 1 Si 86.3878 10.7841 1.60158 0
509 1 Si 89.6013 11.0854 1.59666 0
510 1 Si 103.91 38.7792 1.65346 0
511 1 Si 100.793 38.8123 1.62999 0
512 1 Si 99.2198 33.2708 1.639 0
513 1 Si 98.8091 36.3854 1.62885 0
514 1 Si 107.899 42.9695 1.63171 0
515 1 Si 104.788 41.9102 1.62464 0
516 1 Si 20.4434 13.3795 1.61973 0
517 1 Si 116.041 41.9203 1.64066 0
518 1 Si 41.3633 14.4618 1.63138 0
519 1 Si 32.5035 15.4334 1.64663 0
520 1 Si 40.2138 17.4967 1.63647 0
521 1 Si 37.0527 18.0713 1.58042 0
522 1 Si 33.887 18.1049 1.64527 0
523 1 Si 44.961 14.6072 1.62722 0
524 1 Si 159.931 39.9419 1.6424 0
525 1 Si 154.167 42.1782 1.63209 0
526 1 Si 157.377 41.9603 1.61531 0
527 1 Si 57.2607 14.5023 1.61785 0
528 1 Si 51.1329 14.7299 1.6272 0
529 1 Si 54.2794 16.1748 1.63295 0
530 1 Si 64.4524 13.9261 1.61413 0
531 1 Si 59.513 16.7818 1.60239 0
532 1 Si 62.7296 16.7045 1.63179 0
533 1 Si 67.7899 13.5077 1.62278 0
534 1 Si 76.1269 12.2152 1.62249 0
535 1 Si 69.9919 16.3903 1.63154 0
536 1 Si 76.0485 15.4021 1.62989 0
537 1 Si 73.3142 17.2048 1.61709 0
538 1 Si 79.3158 11.6526 1.62434 0
539 1 Si 84.8155 13.6729 1.62745 0
540 1 Si 81.4506 14.0561 1.62539 0
541 1 Si 96.0542 12.7389 1.63129 0
542 1 Si 90.4902 14.2736 1.62847 0
543 1 Si 93.7932 15.1798 1.63741 0
544 1 Si 123.599 43.6505 1.58894 0
545 1 Si 116.578 45.1721 1.62595 0
546 1 Si 119.116 47.325 1.62381 0
547 1 Si 122.124 46.3841 1.62359 0
548 1 Si 14.2724 15.4981 1.63411 0
549 1 Si 126.508 44.8293 1.57141 0
550 1 Si 29.4279 15.6294 1.57468 0
551 1 Si 26.4035 16.2986 1.65374 0
552 1 Si 135.166 45.3185 1.63157 0
553 1 Si 131.996 46.0235 1.6267 0
554 1 Si 140.748 44.6501 1.60311 0
555 1 Si 138.162 46.5611 1.59938 0
556 1 Si 48.002 16.4158 1.63603 0
557 1 Si 146.788 44.7812 1.63861 0
558 1 Si 143.719 46.0325 1.61179 0
559 1 Si 152.52 44.9386 1.63245 0
560 1 Si 149.705 46.4479 1.62606 0
561 1 Si 178.293 45.2379 1.6389 0
562 1 Si 87.4416 15.7672 1.6232 0
563 1 Si 19.6468 16.8283 1.6298 0
564 1 Si 16.4334 18.04 1.62956 0
565 1 Si 114.281 47.3457 1.59528 0
566 1 Si 108.108 46.584 1.62329 0
567 1 Si 111.164 48.1989 1.62923 0
568 1 Si 25.0723 19.2499 1.62632 0
569 1 Si 21.7944 19.4338 1.61511 0
570 1 Si 115.768 50.1704 1.59989 0
571 1 Si 118.946 50.6709 1.62759 0
572 1 Si 41.9532 20.2667 1.63015 0
573 1 Si 35.3104 20.7049 1.60692 0
574 1 Si 39.961 22.7036 1.64109 0
575 1 Si 36.8999 23.2437 1.62974 0
576 1 Si 47.813 19.8557 1.63419 0
577 1 Si 44.9495 21.5291 1.63001 0
578 1 Si 55.087 19.4995 1.62776 0
579 1 Si 50.1173 22.3049 1.6141 0
580 1 Si 53.5011 22.4684 1.63568 0
581 1 Si 58.3573 19.7844 1.61359 0
582 1 Si 157.595 45.1094 1.62146 0
583 1 Si 154.971 46.8365 1.6338 0
584 1 Si 63.4842 19.8883 1.61758 0
585 1 Si 60.8758 21.8703 1.62368 0
586 1 Si 69.0733 19.5969 1.6095 0
587 1 Si 66.3655 21.3591 1.63232 0
588 1 Si 79.1844 16.4657 1.60868 0
589 1 Si 86.765 18.9865 1.64309 0
590 1 Si 83.3849 19.8045 1.62692 0
591 1 Si 79.9955 19.6231 1.62923 0
592 1 Si 194.04 47.4578 1.61435 0
593 1 Si 95.4397 18.1208 1.60638 0
594 1 Si 179.189 48.2548 1.61092 0
595 1 Si 182.047 49.5339 1.61538 0
596 1 Si 6.57802 44.6265 1.63591 0
597 1 Si 8.38975 41.8747 1.63547 0
598 1 Si 9.20649 20.2303 1.6203 0
599 1 Si 102.058 43.7787 1.63217 0
600 1 Si 99.5397 41.7293 1.62959 0
601 1 Si 105.196 48.6874 1.61652 0
602 1 Si 101.933 47.0944 1.63351 0
603 1 Si 15.4957 21.39 1.62662 0
604 1 Si 12.0814 22.1935 1.652 0
605 1 Si 125.032 47.576 1.62982 0
606 1 Si 32.1628 20.7454 1.59046 0
607 1 Si 26.5991 22.2099 1.6186 0
608 1 Si 29.8759 22.9604 1.64296 0
609 1 Si 129.912 48.7405 1.63557 0
610 1 Si 126.728 50.1693 1.64313 0
611 1 Si 140.057 49.1759 1.63164 0
612 1 Si 131.542 51.4385 1.64105 0
613 1 Si 134.767 51.7014 1.5883 0
614 1 Si 138.004 51.5694 1.64001 0
615 1 Si 143.395 49.3006 1.61514 0
616 1 Si 151.131 49.4947 1.63823 0
617 1 Si 154.453 49.9349 1.61607 0
618 1 Si 71.3408 21.9688 1.62418 0
619 1 Si 74.2044 20.4423 1.62095 0
620 1 Si 174.53 50.4771 1.62583 0
621 1 Si 177.566 50.9061 1.62703 0
622 1 Si 89.5307 21.1127 1.60854 0
623 1 Si 84.266 22.7334 1.58818 0
624 1 Si 87.3137 23.2361 1.57754 0
625 1 Si 95.1912 21.3863 1.63473 0
626 1 Si 92.4396 22.9358 1.64173 0
627 1 Si 200.134 51.2258 1.62317 0
628 1 Si 1.92061 50.1219 1.62516 0
629 1 Si 203.572 52.2769 1.63053 0
630 1 Si 112.731 51.0625 1.63289 0
631 1 Si 105.693 52.239 1.64323 0
632 1 Si 108.491 54.3463 1.62069 0
633 1 Si 111.848 54.1208 1.63465 0
634 1 Si 21.1773 22.7225 1.61976 0
635 1 Si 17.9931 23.8933 1.62703 0
636 1 Si 24.1001 24.4324 1.62419 0
637 1 Si 145.987 51.6199 1.63401 0
638 1 Si 149.365 52.2094 1.63423 0
639 1 Si 40.2629 25.7532 1.62341 0
640 1 Si 34.9984 25.7285 1.61912 0
641 1 Si 37.6092 27.4218 1.65244 0
642 1 Si 45.2726 24.8247 1.6228 0
643 1 Si 43.0362 27.2393 1.61942 0
644 1 Si 48.4766 25.1695 1.61999 0
645 1 Si 55.2088 25.5254 1.63284 0
646 1 Si 49.8991 28.0779 1.63671 0
647 1 Si 53.1487 28.0605 1.60673 0
648 1 Si 61.3108 25.1943 1.62913 0
649 1 Si 58.4243 26.864 1.6436 0
650 1 Si 66.9214 24.6336 1.62257 0
651 1 Si 64.3857 26.825 1.63021 0
652 1 Si 193.917 51.1505 1.62458 0
653 1 Si 187.833 51.9791 1.63298 0
654 1 Si 190.98 53.2307 1.61794 0
655 1 Si 70.2222 25.1261 1.63367 0
656 1 Si 197.009 52.9074 1.62628 0
657 1 Si 77.3166 21.7873 1.63382 0
658 1 Si 182.03 52.7208 1.6336 0
659 1 Si 185.015 53.9558 1.63134 0
660 1 Si 77.5497 25.1802 1.63174 0
661 1 Si 83.2133 25.6325 1.62443 0
662 1 Si 80.3592 26.8588 1.62116 0
663 1 Si 102.924 54.0761 1.63322 0
664 1 Si 98.5083 48.0338 1.63652 0
665 1 Si 97.6132 51.2622 1.62508 0
666 1 Si 99.7312 53.6343 1.61251 0
667 1 Si 124.556 52.8341 1.61144 0
668 1 Si 121.169 53.3732 1.63299 0
669 1 Si 11.3907 25.4878 1.6436 0
670 1 Si 5.28674 50.2081 1.6505 0
671 1 Si 7.53518 47.6899 1.64086 0
672 1 Si 129.646 54.0786 1.6186 0
673 1 Si 126.685 55.3054 1.62149 0
674 1 Si 31.8075 25.6431 1.631 0
675 1 Si 134.494 54.8114 1.61729 0
676 1 Si 131.806 56.3543 1.62162 0
677 1 Si 139.792 54.205 1.59745 0
678 1 Si 137.29 56.0254 1.62267 0
679 1 Si 145.361 54.7593 1.61556 0
680 1 Si 142.461 55.8703 1.63034 0
681 1 Si 151.234 55.0942 1.6102 0
682 1 Si 146.821 57.6042 1.62681 0
683 1 Si 149.872 58.0267 1.61752 0
684 1 Si 72.035 28.0956 1.64004 0
685 1 Si 75.4088 27.7299 1.62227 0
686 1 Si 172.776 53.029 1.61458 0
687 1 Si 178.982 53.7296 1.62582 0
688 1 Si 86.2394 26.0791 1.64703 0
689 1 Si 93.6582 26.0898 1.63795 0
690 1 Si 88.2745 28.2664 1.62639 0
691 1 Si 91.3258 28.1126 1.59826 0
692 1 Si 0.591802 55.4047 1.63089 0
693 1 Si 4.08991 55.6208 1.62985 0
694 1 Si 6.48608 53.2196 1.6402 0
695 1 Si 108.772 57.5975 1.5994 0
696 1 Si 107.701 60.6659 1.64389 0
697 1 Si 104.781 61.7018 1.61694 0
698 1 Si 102.14 60.0933 1.62394 0
699 1 Si 101.796 57.0239 1.63343 0
700 1 Si 114.145 56.5918 1.61419 0
701 1 Si 111.738 58.6749 1.60342 0
702 1 Si 17.3255 27.3528 1.61747 0
703 1 Si 13.959 27.6504 1.62228 0
704 1 Si 24.6838 27.7868 1.63014 0
705 1 Si 19.2268 30.5037 1.63661 0
706 1 Si 22.6962 30.5425 1.62844 0
707 1 Si 120.525 56.8107 1.63645 0
708 1 Si 117.276 57.9102 1.63065 0
709 1 Si 31.0081 28.7154 1.63804 0
710 1 Si 27.7532 29.0196 1.59855 0
711 1 Si 154.205 56.5582 1.63662 0
712 1 Si 38.6133 30.3662 1.62876 0
713 1 Si 33.1386 31.2751 1.62569 0
714 1 Si 36.2574 32.5095 1.63026 0
715 1 Si 41.8608 30.293 1.63263 0
716 1 Si 48.7968 31.1532 1.61452 0
717 1 Si 43.13 33.2629 1.62196 0
718 1 Si 46.4266 33.3876 1.62611 0
719 1 Si 54.0609 31.1688 1.62633 0
720 1 Si 51.4628 32.9592 1.61779 0
721 1 Si 190.869 56.6969 1.61789 0
722 1 Si 184.573 57.2357 1.62685 0
723 1 Si 187.807 58.391 1.62633 0
724 1 Si 59.2144 30.1199 1.61101 0
725 1 Si 56.9853 32.4797 1.6112 0
726 1 Si 196.846 56.3627 1.62377 0
727 1 Si 193.956 58.1794 1.62228 0
728 1 Si 176.902 56.1896 1.63122 0
729 1 Si 181.37 58.8605 1.61189 0
730 1 Si 177.817 59.2032 1.63242 0
731 1 Si 64.9272 30.2947 1.63108 0
732 1 Si 62.0045 31.825 1.63713 0
733 1 Si 70.8601 31.4726 1.62531 0
734 1 Si 67.5636 32.6171 1.63475 0
735 1 Si 202.839 58.1838 1.62347 0
736 1 Si 199.436 58.5312 1.63135 0
737 1 Si 77.2854 30.4655 1.62586 0
738 1 Si 80.5056 30.0952 1.6282 0
739 1 Si 126.438 58.6821 1.62156 0
740 1 Si 123.147 59.2057 1.63108 0
741 1 Si 96.3323 28.0891 1.64136 0
742 1 Si 131.743 59.5131 1.61999 0
743 1 Si 129.02 61.2409 1.61271 0
744 1 Si 12.9038 30.6644 1.63938 0
745 1 Si 137.263 59.0464 1.61591 0
746 1 Si 134.641 60.7366 1.6351 0
747 1 Si 142.752 59.0541 1.64678 0
748 1 Si 140.007 60.4809 1.62608 0
749 1 Si 27.8784 32.1962 1.60571 0
750 1 Si 30.8259 33.4428 1.64268 0
751 1 Si 145.545 60.5538 1.60908 0
752 1 Si 154.117 59.8843 1.63262 0
753 1 Si 151.139 60.9892 1.6266 0
754 1 Si 173.691 56.012 1.62417 0
755 1 Si 171.118 57.8432 1.60636 0
756 1 Si 164.983 58.4078 1.59989 0
757 1 Si 76.3609 33.5605 1.64009 0
758 1 Si 73.0854 34.1217 1.62371 0
759 1 Si 88.1193 31.3074 1.61808 0
760 1 Si 82.8868 32.4126 1.60585 0
761 1 Si 86.0078 33.5441 1.64409 0
762 1 Si 91.2179 31.2345 1.60015 0
763 1 Si 0.135497 61.1317 1.62115 0
764 1 Si 3.44568 61.0479 1.6433 0
765 1 Si 5.62875 58.5337 1.63611 0
766 1 Si 111.747 61.8345 1.6254 0
767 1 Si 117.186 61.2106 1.62637 0
768 1 Si 114.579 63.1491 1.63289 0
769 1 Si 14.5149 33.3605 1.62063 0
770 1 Si 17.6497 33.6903 1.60581 0
771 1 Si 109.08 63.6236 1.60013 0
772 1 Si 24.8209 33.1855 1.61143 0
773 1 Si 123.024 62.5577 1.6277 0
774 1 Si 119.829 62.9661 1.62386 0
775 1 Si 37.5411 35.6037 1.62745 0
776 1 Si 31.6871 36.5168 1.63102 0
777 1 Si 34.8665 37.703 1.63 0
778 1 Si 159.335 60.8032 1.63231 0
779 1 Si 156.344 62.2669 1.6323 0
780 1 Si 41.0409 35.9363 1.62266 0
781 1 Si 47.876 36.3422 1.61589 0
782 1 Si 51.149 36.1422 1.62756 0
783 1 Si 165.12 61.6496 1.62325 0
784 1 Si 161.988 62.8243 1.63161 0
785 1 Si 187.309 61.5867 1.60782 0
786 1 Si 181.688 62.0203 1.62465 0
787 1 Si 184.559 63.1632 1.61743 0
788 1 Si 61.4742 35.0771 1.62621 0
789 1 Si 58.2351 35.501 1.62251 0
790 1 Si 194.766 61.4419 1.62552 0
791 1 Si 193.38 64.4872 1.6061 0
792 1 Si 187.914 64.6844 1.64634 0
793 1 Si 190.611 66.1759 1.64102 0
794 1 Si 66.887 36.1489 1.63002 0
795 1 Si 63.7417 37.4618 1.63063 0
796 1 Si 174.784 61.1403 1.63187 0
797 1 Si 179.307 64.0488 1.60971 0
798 1 Si 176.113 64.0144 1.64171 0
799 1 Si 81.9954 35.4778 1.6048 0
800 1 Si 78.7624 35.886 1.64856 0
801 1 Si 198.042 61.5527 1.61549 0
802 1 Si 96.5633 31.3585 1.62988 0
803 1 Si 93.7708 32.9857 1.6191 0
804 1 Si 199.568 64.4299 1.63593 0
805 1 Si 202.796 64.0469 1.63628 0
806 1 Si 103.233 64.4287 1.60499 0
807 1 Si 100.525 62.7693 1.60394 0
808 1 Si 130.287 64.6993 1.63219 0
809 1 Si 124.794 65.5433 1.62712 0
810 1 Si 127.914 67.107 1.63632 0
811 1 Si 12.5752 35.8867 1.62303 0
812 1 Si 135.88 63.5921 1.61718 0
813 1 Si 133.647 65.9044 1.60492 0
814 1 Si 139.074 63.4306 1.63693 0
815 1 Si 25.2812 36.4439 1.64579 0
816 1 Si 16.8406 37.1079 1.63303 0
817 1 Si 22.4958 38.3423 1.59164 0
818 1 Si 19.2486 39.2489 1.63811 0
819 1 Si 28.54 37.6271 1.63645 0
820 1 Si 146.779 63.5983 1.63637 0
821 1 Si 141.39 65.557 1.61407 0
822 1 Si 144.606 66 1.63818 0
823 1 Si 150.056 64.0902 1.63405 0
824 1 Si 42.7764 38.8879 1.63445 0
825 1 Si 46.256 39.1825 1.64103 0
826 1 Si 155.508 65.6118 1.63967 0
827 1 Si 152.157 66.8084 1.63715 0
828 1 Si 53.4304 38.5282 1.6233 0
829 1 Si 56.83 38.4648 1.63019 0
830 1 Si 171.191 61.1562 1.62778 0
831 1 Si 168.048 63.4087 1.62569 0
832 1 Si 69.2033 38.6446 1.63968 0
833 1 Si 72.3491 37.4248 1.64393 0
834 1 Si 87.7115 36.4291 1.61141 0
835 1 Si 84.6192 37.4725 1.62534 0
836 1 Si 194.92 67.3386 1.62236 0
837 1 Si 198.105 67.4103 1.62058 0
838 1 Si 204.168 66.9723 1.64752 0
839 1 Si 3.04078 66.6752 1.62927 0
840 1 Si 4.77334 63.9745 1.62975 0
841 1 Si 93.3817 36.1277 1.62943 0
842 1 Si 90.8226 37.972 1.61651 0
843 1 Si 108.685 66.9541 1.65467 0
844 1 Si 114.282 66.3473 1.62508 0
845 1 Si 111.669 68.2499 1.6239 0
846 1 Si 13.7988 38.7997 1.62825 0
847 1 Si 11.7206 41.6022 1.62655 0
848 1 Si 106.072 69.1342 1.63507 0
849 1 Si 103.154 67.6282 1.62383 0
850 1 Si 119.64 66.0773 1.61329 0
851 1 Si 122.367 67.6562 1.60344 0
852 1 Si 23.5955 41.3173 1.61721 0
853 1 Si 29.2848 40.7248 1.61505 0
854 1 Si 26.572 42.3478 1.61232 0
855 1 Si 161.392 66.0577 1.61655 0
856 1 Si 158.376 67.4619 1.61862 0
857 1 Si 180.249 67.0473 1.6095 0
858 1 Si 174.917 66.9349 1.61807 0
859 1 Si 177.596 68.5908 1.61827 0