ITEM: TIMESTEP
1708
ITEM: NUMBER OF ATOMS
15672
ITEM: BOX BOUNDS pp pp pp
0.0000000000000000e+00 2.0482700605458794e+02
0.0000000000000000e+00 1.7795787166118822e+02
-1.0000000000000000e+02 1.0000000000000000e+02
ITEM: ATOMS id type element x y z v_uncoordination
1 1 Si 204.66 34.5465 1.63661 0
2 1 Si 1.84192 31.6625 1.6261 0
3 1 Si 201.252 34.6457 1.62067 0
4 1 Si 201.852 27.3296 1.62529 0
5 1 Si 0.464514 28.3692 1.63499 0
6 1 Si 198.86 28.9975 1.63107 0
7 1 Si 198.736 32.3834 1.63069 0
8 1 Si 1.20387 37.7134 1.63684 0
9 1 Si 4.56721 38.0579 1.62364 0
10 1 Si 5.36775 32.1575 1.62978 0
11 1 Si 6.70832 35.446 1.62151 0
12 1 Si 204.174 40.6169 1.6372 0
13 1 Si 200.835 40.6904 1.62764 0
14 1 Si 199.728 37.5925 1.61658 0
15 1 Si 0.770742 43.6017 1.61378 0
16 1 Si 3.95054 43.63 1.63391 0
17 1 Si 5.89053 41.1261 1.62829 0
18 1 Si 198.586 43.2822 1.63226 0
19 1 Si 199.299 46.4959 1.61669 0
20 1 Si 0.305094 46.8665 1.64491 0
21 1 Si 202.18 48.0949 1.61756 0
22 1 Si 108.941 3.1994 1.62968 0
23 1 Si 105.911 4.20791 1.60489 0
24 1 Si 110.821 5.81882 1.62457 0
25 1 Si 108.581 8.06555 1.63655 0
26 1 Si 105.554 7.3232 1.60132 0
27 1 Si 110.29 0.266283 1.62053 0
28 1 Si 102.719 3.87568 1.62981 0
29 1 Si 102.683 0.728165 1.62897 0
30 1 Si 105.185 176.496 1.62843 0
31 1 Si 108.387 175.582 1.63018 0
32 1 Si 115.444 2.97068 1.64392 0
33 1 Si 114.066 5.93246 1.63461 0
34 1 Si 113.587 0.18118 1.62399 0
35 1 Si 118.741 3.16117 1.63663 0
36 1 Si 120.935 5.61874 1.63839 0
37 1 Si 116.05 8.60907 1.6233 0
38 1 Si 119.369 8.44827 1.63124 0
39 1 Si 120.138 0.344715 1.6325 0
40 1 Si 118.197 175.689 1.62299 0
41 1 Si 114.945 175.153 1.64065 0
42 1 Si 124.305 5.41693 1.63029 0
43 1 Si 125.873 2.51428 1.64129 0
44 1 Si 123.404 0.312768 1.63182 0
45 1 Si 131.267 4.93487 1.62429 0
46 1 Si 134.591 4.50457 1.62026 0
47 1 Si 129.698 7.87032 1.63228 0
48 1 Si 137.144 6.46471 1.62295 0
49 1 Si 137.385 9.56032 1.63323 0
50 1 Si 134.653 11.1824 1.61405 0
51 1 Si 131.42 10.7 1.63761 0
52 1 Si 129.34 2.22006 1.61235 0
53 1 Si 136.536 1.84849 1.62327 0
54 1 Si 131.643 177.647 1.61943 0
55 1 Si 135.044 176.964 1.62539 0
56 1 Si 126.342 7.99556 1.64403 0
57 1 Si 140.143 5.4028 1.60611 0
58 1 Si 139.799 2.27581 1.60471 0
59 1 Si 153.383 3.80627 1.62191 0
60 1 Si 151.441 6.64491 1.61407 0
61 1 Si 156.75 3.06273 1.62119 0
62 1 Si 158.087 6.00374 1.63069 0
63 1 Si 156.239 8.79191 1.63118 0
64 1 Si 152.977 9.53566 1.6136 0
65 1 Si 151.878 0.981544 1.62554 0
66 1 Si 148.651 0.671364 1.61291 0
67 1 Si 153.512 176.077 1.62978 0
68 1 Si 151.234 173.799 1.63458 0
69 1 Si 148.49 175.47 1.61468 0
70 1 Si 145.846 5.32837 1.6302 0
71 1 Si 145.772 2.16639 1.63864 0
72 1 Si 148.212 7.47619 1.63004 0
73 1 Si 158.665 0.13891 1.61973 0
74 1 Si 156.715 175.375 1.62918 0
75 1 Si 161.326 6.39068 1.61932 0
76 1 Si 161.297 9.57397 1.61652 0
77 1 Si 158.489 11.0537 1.62724 0
78 1 Si 164.209 4.83205 1.63676 0
79 1 Si 164.57 1.56956 1.63582 0
80 1 Si 162.039 177.37 1.63947 0
81 1 Si 166.958 6.68363 1.62038 0
82 1 Si 166.75 9.88708 1.61999 0
83 1 Si 163.916 11.2513 1.6321 0
84 1 Si 170.395 2.25545 1.62688 0
85 1 Si 170.034 5.56467 1.63825 0
86 1 Si 167.688 0.491162 1.64063 0
87 1 Si 172.713 177.804 1.62678 0
88 1 Si 176.615 3.58153 1.61739 0
89 1 Si 175.341 6.61305 1.65171 0
90 1 Si 175.874 0.392519 1.63048 0
91 1 Si 172.367 7.93967 1.62717 0
92 1 Si 171.792 174.634 1.61348 0
93 1 Si 168.614 175.346 1.62754 0
94 1 Si 179.776 3.04556 1.63264 0
95 1 Si 181.819 5.44939 1.64341 0
96 1 Si 180.536 8.32418 1.64203 0
97 1 Si 177.461 8.98984 1.64931 0
98 1 Si 180.836 0.0210718 1.62384 0
99 1 Si 178.282 176.01 1.62075 0
100 1 Si 185.022 5.16449 1.61614 0
101 1 Si 186.156 1.98239 1.63852 0
102 1 Si 184.03 177.212 1.63815 0
103 1 Si 186.679 8.09464 1.63968 0
104 1 Si 182.185 10.9998 1.6412 0
105 1 Si 185.344 11.111 1.63606 0
106 1 Si 191.006 4.94255 1.61815 0
107 1 Si 189.515 1.97712 1.62552 0
108 1 Si 189.903 7.94923 1.61375 0
109 1 Si 196.026 3.05592 1.61805 0
110 1 Si 199.138 3.62185 1.63299 0
111 1 Si 194.15 5.53638 1.63202 0
112 1 Si 200.382 6.52728 1.6361 0
113 1 Si 195.439 8.49365 1.62047 0
114 1 Si 198.636 9.23234 1.6306 0
115 1 Si 194.927 0.0660846 1.59938 0
116 1 Si 200.787 0.933808 1.61551 0
117 1 Si 198.064 177.026 1.63509 0
118 1 Si 191.638 177.309 1.63725 0
119 1 Si 0.680756 4.20048 1.60721 0
120 1 Si 203.527 6.69815 1.62481 0
121 1 Si 204.078 1.19803 1.66082 0
122 1 Si 3.41693 6.08411 1.63997 0
123 1 Si 0.154891 9.4944 1.62429 0
124 1 Si 3.30444 9.39756 1.60782 0
125 1 Si 6.23534 1.09036 1.62137 0
126 1 Si 6.27542 4.60518 1.61889 0
127 1 Si 4.1448 176.038 1.61057 0
128 1 Si 0.924565 176.389 1.62385 0
129 1 Si 114.846 11.6385 1.63624 0
130 1 Si 111.743 12.3038 1.61131 0
131 1 Si 108.833 11.12 1.62546 0
132 1 Si 121.377 11.0114 1.64302 0
133 1 Si 124.665 10.7918 1.64514 0
134 1 Si 140.263 11.0169 1.63605 0
135 1 Si 136.328 13.9455 1.62772 0
136 1 Si 139.58 14.0788 1.62229 0
137 1 Si 142.997 6.69424 1.62112 0
138 1 Si 143.213 9.83162 1.60986 0
139 1 Si 142.732 0.870937 1.63438 0
140 1 Si 146.396 10.2457 1.63394 0
141 1 Si 150.944 12.3472 1.62617 0
142 1 Si 147.547 13.2308 1.61957 0
143 1 Si 172.043 11.3492 1.63509 0
144 1 Si 168.932 12.2707 1.61518 0
145 1 Si 177.176 12.1579 1.64868 0
146 1 Si 174.42 13.7684 1.63084 0
147 1 Si 192.535 9.89579 1.62685 0
148 1 Si 200.398 12.0474 1.63775 0
149 1 Si 203.694 12.3681 1.61598 0
150 1 Si 116.669 14.354 1.62165 0
151 1 Si 119.842 13.8561 1.63727 0
152 1 Si 126.473 13.4726 1.64175 0
153 1 Si 129.721 13.4932 1.6372 0
154 1 Si 158.414 14.2495 1.64182 0
155 1 Si 152.385 15.2055 1.62469 0
156 1 Si 155.596 15.8266 1.61581 0
157 1 Si 164.047 14.4028 1.62246 0
158 1 Si 161.231 15.9247 1.61751 0
159 1 Si 180.111 13.3871 1.6435 0
160 1 Si 192.571 13.0562 1.63487 0
161 1 Si 186.518 14.2001 1.63202 0
162 1 Si 189.775 14.7286 1.61093 0
163 1 Si 195.388 14.6766 1.60189 0
164 1 Si 198.633 14.7039 1.63336 0
165 1 Si 110.571 15.2029 1.61089 0
166 1 Si 107.438 15.5797 1.64284 0
167 1 Si 106.112 12.7768 1.61623 0
168 1 Si 115.447 17.4058 1.64172 0
169 1 Si 112.274 17.7804 1.62199 0
170 1 Si 121.598 16.4492 1.63376 0
171 1 Si 124.748 16.1445 1.63297 0
172 1 Si 113.553 45.2457 1.60237 0
173 1 Si 114.64 42.3028 1.59281 0
174 1 Si 110.351 45.1946 1.64393 0
175 1 Si 111.782 40.8552 1.63493 0
176 1 Si 108.901 42.3518 1.61503 0
177 1 Si 116.361 46.8208 1.62039 0
178 1 Si 117.839 42.1035 1.62725 0
179 1 Si 119.273 45.2658 1.62795 0
180 1 Si 108.244 47.543 1.61072 0
181 1 Si 115.846 49.9397 1.62748 0
182 1 Si 109.512 50.5137 1.62052 0
183 1 Si 112.774 51.2873 1.62687 0
184 1 Si 131.243 16.3483 1.636 0
185 1 Si 134.514 16.5226 1.63218 0
186 1 Si 145.338 16.071 1.62837 0
187 1 Si 141.797 16.5157 1.64001 0
188 1 Si 150.493 17.8804 1.61064 0
189 1 Si 147.316 18.8338 1.6237 0
190 1 Si 167.223 15.0549 1.62969 0
191 1 Si 174.735 17.2171 1.63242 0
192 1 Si 168.059 18.1806 1.62704 0
193 1 Si 171.566 19.0441 1.61975 0
194 1 Si 180.978 16.4526 1.62377 0
195 1 Si 178.25 18.5195 1.6273 0
196 1 Si 184.354 16.7906 1.63599 0
197 1 Si 191.134 17.6647 1.62284 0
198 1 Si 194.392 17.707 1.62104 0
199 1 Si 1.64277 14.2339 1.6314 0
200 1 Si 199.92 17.6788 1.61983 0
201 1 Si 203.043 18.768 1.61662 0
202 1 Si 1.30249 17.5114 1.62632 0
203 1 Si 4.53762 12.469 1.63215 0
204 1 Si 117.297 20.0791 1.64484 0
205 1 Si 120.434 19.3963 1.61345 0
206 1 Si 126.047 19.0134 1.61341 0
207 1 Si 129.289 18.9721 1.64019 0
208 1 Si 136.406 19.1367 1.63186 0
209 1 Si 139.783 19.2333 1.64009 0
210 1 Si 155.88 19.0198 1.62212 0
211 1 Si 152.835 20.0749 1.61836 0
212 1 Si 161.525 19.1537 1.61678 0
213 1 Si 158.594 20.8388 1.65312 0
214 1 Si 185.715 19.8204 1.64683 0
215 1 Si 189.208 20.2474 1.63687 0
216 1 Si 197.173 19.4451 1.61604 0
217 1 Si 106.388 18.5263 1.62876 0
218 1 Si 103.261 19.3836 1.64652 0
219 1 Si 103.108 11.6953 1.631 0
220 1 Si 100.658 13.6647 1.63151 0
221 1 Si 101.063 16.9255 1.6209 0
222 1 Si 109.492 19.3865 1.6232 0
223 1 Si 115.977 23.046 1.66523 0
224 1 Si 109.965 22.3774 1.63244 0
225 1 Si 112.87 23.4912 1.61034 0
226 1 Si 123.321 20.784 1.62985 0
227 1 Si 130.975 21.6504 1.62565 0
228 1 Si 134.231 21.5299 1.62579 0
229 1 Si 146.845 22.2712 1.63044 0
230 1 Si 140.925 22.305 1.61124 0
231 1 Si 143.901 23.7904 1.63169 0
232 1 Si 152.31 23.1645 1.61833 0
233 1 Si 149.396 24.4722 1.61277 0
234 1 Si 164.887 19.7898 1.628 0
235 1 Si 171.524 22.4068 1.63409 0
236 1 Si 165.142 22.9651 1.62929 0
237 1 Si 168.391 23.5071 1.63528 0
238 1 Si 179.597 21.7117 1.63099 0
239 1 Si 173.997 24.7892 1.63497 0
240 1 Si 177.504 24.519 1.62244 0
241 1 Si 183.125 22.0549 1.62845 0
242 1 Si 191.74 22.5622 1.63696 0
243 1 Si 197.87 22.615 1.62355 0
244 1 Si 194.926 23.9277 1.61707 0
245 1 Si 203.503 21.986 1.62209 0
246 1 Si 1.87137 22.6625 1.62781 0
247 1 Si 3.69613 19.88 1.61622 0
248 1 Si 123.416 23.9076 1.62649 0
249 1 Si 117.591 25.8249 1.61753 0
250 1 Si 120.73 25.6636 1.61666 0
251 1 Si 126.335 25.3383 1.62214 0
252 1 Si 129.578 24.5569 1.62733 0
253 1 Si 135.343 24.4908 1.61983 0
254 1 Si 138.616 24.6184 1.62393 0
255 1 Si 157.844 24.0832 1.6349 0
256 1 Si 154.809 25.1466 1.62347 0
257 1 Si 162.81 25.3791 1.62474 0
258 1 Si 159.767 26.7098 1.63335 0
259 1 Si 167.65 26.5329 1.63093 0
260 1 Si 164.759 27.7914 1.61407 0
261 1 Si 184.392 25.0565 1.62283 0
262 1 Si 190.515 25.4065 1.62717 0
263 1 Si 187.442 26.1101 1.60881 0
264 1 Si 200.963 24.0529 1.62773 0
265 1 Si 107.716 24.5717 1.61954 0
266 1 Si 104.503 25.0959 1.63549 0
267 1 Si 102.282 22.5903 1.61581 0
268 1 Si 110.685 25.759 1.63157 0
269 1 Si 111.447 28.7495 1.61505 0
270 1 Si 114.247 30.3234 1.62674 0
271 1 Si 117.144 29.0595 1.63496 0
272 1 Si 124.939 28.2395 1.62163 0
273 1 Si 121.768 28.5921 1.60733 0
274 1 Si 132.477 26.1407 1.62705 0
275 1 Si 140.269 27.3281 1.62489 0
276 1 Si 143.508 27.0725 1.61969 0
277 1 Si 150.361 27.6217 1.6369 0
278 1 Si 153.594 28.088 1.64386 0
279 1 Si 169.574 28.9206 1.63923 0
280 1 Si 172.641 27.8904 1.62751 0
281 1 Si 179.15 27.4978 1.6231 0
282 1 Si 182.478 27.6542 1.61334 0
283 1 Si 192.817 27.6589 1.62952 0
284 1 Si 188.16 29.2269 1.5917 0
285 1 Si 191.189 30.3523 1.64131 0
286 1 Si 195.97 27.1254 1.61258 0
287 1 Si 2.8015 25.8406 1.63534 0
288 1 Si 108.881 30.6193 1.61845 0
289 1 Si 105.621 30.7577 1.64845 0
290 1 Si 103.483 28.2664 1.62555 0
291 1 Si 132.447 29.3297 1.63202 0
292 1 Si 129.619 31.0524 1.61943 0
293 1 Si 126.329 31.0576 1.63305 0
294 1 Si 135.442 30.6756 1.61189 0
295 1 Si 138.589 30.0139 1.63659 0
296 1 Si 145.321 29.8387 1.63163 0
297 1 Si 148.58 30.3041 1.63121 0
298 1 Si 158.692 30.0001 1.6212 0
299 1 Si 155.36 30.8424 1.65785 0
300 1 Si 164.256 30.9148 1.61773 0
301 1 Si 161.203 32.2627 1.63024 0
302 1 Si 167.47 31.4178 1.64447 0
303 1 Si 174.085 30.7347 1.6257 0
304 1 Si 177.347 30.2755 1.61775 0
305 1 Si 185.006 29.6971 1.62938 0
306 1 Si 110.646 33.2481 1.5949 0
307 1 Si 113.845 33.5094 1.61651 0
308 1 Si 119.728 31.0141 1.62607 0
309 1 Si 130.358 34.1016 1.61508 0
310 1 Si 135.775 33.854 1.61842 0
311 1 Si 133.163 35.5225 1.63309 0
312 1 Si 127.823 46.5993 1.60769 0
313 1 Si 129.819 44.1368 1.62159 0
314 1 Si 124.868 45.1663 1.62928 0
315 1 Si 124.853 41.9086 1.62217 0
316 1 Si 128.011 41.6065 1.62451 0
317 1 Si 129.466 49.3841 1.62031 0
318 1 Si 132.981 43.8896 1.63228 0
319 1 Si 134.421 46.6969 1.63425 0
320 1 Si 132.783 49.4298 1.62952 0
321 1 Si 122.382 47.1913 1.63235 0
322 1 Si 124.156 50.4862 1.63024 0
323 1 Si 127.54 52.0093 1.61307 0
324 1 Si 140.492 32.5809 1.6184 0
325 1 Si 143.658 32.6413 1.63211 0
326 1 Si 150.13 33.2583 1.63775 0
327 1 Si 153.469 33.7038 1.63144 0
328 1 Si 168.921 34.2304 1.62785 0
329 1 Si 172.174 33.4914 1.632 0
330 1 Si 178.756 33.1217 1.64 0
331 1 Si 184.976 32.7807 1.63553 0
332 1 Si 181.873 33.4987 1.62651 0
333 1 Si 9.51874 1.05984 1.60309 0
334 1 Si 10.9438 4.0092 1.60709 0
335 1 Si 9.03637 6.71704 1.62653 0
336 1 Si 11.9144 176.732 1.62783 0
337 1 Si 14.1207 3.28532 1.614 0
338 1 Si 14.9285 0.134387 1.59846 0
339 1 Si 3.60319 172.547 1.62566 0
340 1 Si 5.80666 170.228 1.62933 0
341 1 Si 8.86329 171.489 1.58442 0
342 1 Si 11.5159 173.475 1.62869 0
343 1 Si 16.736 5.12618 1.63119 0
344 1 Si 19.2606 2.84849 1.61498 0
345 1 Si 21.8971 7.31824 1.62028 0
346 1 Si 22.2624 4.06238 1.62437 0
347 1 Si 16.2228 8.53004 1.62014 0
348 1 Si 19.4034 9.46947 1.62958 0
349 1 Si 18.2223 177.653 1.62844 0
350 1 Si 192.672 33.2304 1.63028 0
351 1 Si 195.846 34.018 1.6132 0
352 1 Si 27.0885 5.72345 1.6168 0
353 1 Si 25.3872 2.99036 1.61124 0
354 1 Si 24.9908 8.1414 1.63308 0
355 1 Si 124.176 33.5467 1.62025 0
356 1 Si 121.001 33.9793 1.61693 0
357 1 Si 32.3617 3.59868 1.62831 0
358 1 Si 35.7068 3.93738 1.62865 0
359 1 Si 30.2735 6.09879 1.62529 0
360 1 Si 36.6355 7.10839 1.62415 0
361 1 Si 31.2366 9.18683 1.61929 0
362 1 Si 34.4141 9.50325 1.63717 0
363 1 Si 30.6538 0.81416 1.62637 0
364 1 Si 37.8068 1.29591 1.62453 0
365 1 Si 32.5012 176.104 1.62079 0
366 1 Si 36.052 176.255 1.64216 0
367 1 Si 27.3285 0.366871 1.62853 0
368 1 Si 43.1909 4.88032 1.61689 0
369 1 Si 42.5552 8.36167 1.63559 0
370 1 Si 41.2801 1.6779 1.63546 0
371 1 Si 39.3925 8.85654 1.63005 0
372 1 Si 46.5695 4.96554 1.6276 0
373 1 Si 48.2244 8.17654 1.62692 0
374 1 Si 47.3986 11.653 1.63227 0
375 1 Si 44.1617 11.6046 1.63124 0
376 1 Si 47.75 1.73658 1.62015 0
377 1 Si 46.1112 176.785 1.63097 0
378 1 Si 42.8316 176.519 1.62528 0
379 1 Si 125.183 36.5064 1.62807 0
380 1 Si 128.281 36.4159 1.62295 0
381 1 Si 50.7903 0.472535 1.62813 0
382 1 Si 53.41 5.56968 1.60883 0
383 1 Si 53.4374 2.25487 1.63101 0
384 1 Si 51.5141 8.30513 1.64417 0
385 1 Si 48.071 174.15 1.60454 0
386 1 Si 51.0864 175.187 1.5997 0
387 1 Si 138.659 35.1539 1.61688 0
388 1 Si 58.0943 3.29217 1.62058 0
389 1 Si 56.5824 6.10351 1.62112 0
390 1 Si 56.3028 0.619452 1.61532 0
391 1 Si 61.2319 3.26562 1.62804 0
392 1 Si 62.4203 6.33417 1.63208 0
393 1 Si 57.9248 9.0164 1.62651 0
394 1 Si 61.1411 9.34259 1.60816 0
395 1 Si 62.4564 0.243006 1.62406 0
396 1 Si 57.6573 175.532 1.62969 0
397 1 Si 60.9364 175.363 1.62779 0
398 1 Si 66.5791 3.22174 1.62563 0
399 1 Si 65.5847 0.271432 1.64374 0
400 1 Si 65.505 6.13375 1.62871 0
401 1 Si 144.916 35.6314 1.63749 0
402 1 Si 148.147 35.892 1.6432 0
403 1 Si 71.4908 2.09868 1.63927 0
404 1 Si 69.4468 4.3057 1.60254 0
405 1 Si 70.5801 177.127 1.6255 0
406 1 Si 67.7359 175.973 1.62998 0
407 1 Si 74.5553 2.13072 1.62101 0
408 1 Si 75.7514 5.03544 1.63646 0
409 1 Si 73.9804 7.86639 1.63836 0
410 1 Si 68.4079 7.18777 1.62134 0
411 1 Si 70.8467 9.08215 1.62321 0
412 1 Si 75.5632 177.053 1.63457 0
413 1 Si 72.998 175.161 1.62498 0
414 1 Si 160.841 35.5808 1.62566 0
415 1 Si 154.498 36.9834 1.64217 0
416 1 Si 157.909 37.4026 1.61502 0
417 1 Si 78.891 4.20179 1.63953 0
418 1 Si 80.8239 6.69608 1.62506 0
419 1 Si 79.2799 9.42896 1.60062 0
420 1 Si 76.2007 10.0961 1.60437 0
421 1 Si 80.4394 1.33296 1.62042 0
422 1 Si 78.7126 176.387 1.63609 0
423 1 Si 163.724 37.3572 1.61792 0
424 1 Si 167.202 37.1275 1.63887 0
425 1 Si 83.8465 5.71318 1.61312 0
426 1 Si 83.5533 2.45864 1.62876 0
427 1 Si 89.2846 1.58808 1.62714 0
428 1 Si 86.0763 0.446169 1.62804 0
429 1 Si 91.2586 4.38153 1.65019 0
430 1 Si 89.3974 7.31385 1.61791 0
431 1 Si 86.134 7.95191 1.63877 0
432 1 Si 90.4775 176.579 1.60142 0
433 1 Si 85.2174 175.124 1.6295 0
434 1 Si 88.2728 174.302 1.61968 0
435 1 Si 94.7983 3.98448 1.63502 0
436 1 Si 97.0058 6.61234 1.6412 0
437 1 Si 95.7804 9.76034 1.62762 0
438 1 Si 89.9383 10.5777 1.62626 0
439 1 Si 92.9724 11.5472 1.62894 0
440 1 Si 96.4318 0.996505 1.6331 0
441 1 Si 93.0026 174.627 1.63862 0
442 1 Si 95.9056 175.709 1.62719 0
443 1 Si 173.813 36.2 1.63443 0
444 1 Si 176.948 35.7522 1.63515 0
445 1 Si 100.411 6.24988 1.64572 0
446 1 Si 99.5337 0.117607 1.60931 0
447 1 Si 102.663 8.53863 1.64267 0
448 1 Si 103.438 173.904 1.63863 0
449 1 Si 100.462 175.045 1.61924 0
450 1 Si 187.536 34.7083 1.64439 0
451 1 Si 190.557 35.6775 1.62919 0
452 1 Si 182.916 36.3607 1.63843 0
453 1 Si 185.841 37.2282 1.62355 0
454 1 Si 10.0897 10.2881 1.63229 0
455 1 Si 13.56 10.9938 1.64394 0
456 1 Si 6.10448 26.2453 1.62818 0
457 1 Si 7.44246 29.3569 1.62893 0
458 1 Si 25.8847 11.172 1.6325 0
459 1 Si 20.1231 12.6468 1.6424 0
460 1 Si 23.3645 13.2619 1.6324 0
461 1 Si 109.385 36.1081 1.60899 0
462 1 Si 106.258 36.4309 1.63323 0
463 1 Si 104.462 33.7881 1.62026 0
464 1 Si 29.1238 11.6704 1.63758 0
465 1 Si 196.534 37.2044 1.62757 0
466 1 Si 35.7144 12.4143 1.59909 0
467 1 Si 38.8334 12.0127 1.60405 0
468 1 Si 115.068 36.561 1.61132 0
469 1 Si 120.579 37.2591 1.63374 0
470 1 Si 117.714 38.6994 1.63357 0
471 1 Si 52.8925 11.3824 1.61721 0
472 1 Si 56.0811 11.6514 1.61323 0
473 1 Si 139.732 38.1212 1.63408 0
474 1 Si 142.964 38.2608 1.62821 0
475 1 Si 62.3682 12.417 1.64233 0
476 1 Si 69.0174 11.8178 1.61499 0
477 1 Si 65.7151 12.6505 1.63803 0
478 1 Si 152.134 39.6397 1.60541 0
479 1 Si 149.012 39.0058 1.63435 0
480 1 Si 158.917 40.5069 1.61902 0
481 1 Si 162.209 40.2568 1.62602 0
482 1 Si 79.6743 12.5186 1.62267 0
483 1 Si 84.9216 11.0367 1.60079 0
484 1 Si 82.6396 13.4182 1.63121 0
485 1 Si 169.433 39.7269 1.61079 0
486 1 Si 172.557 39.1689 1.63731 0
487 1 Si 97.7131 12.347 1.61422 0
488 1 Si 178.39 38.4986 1.64406 0
489 1 Si 181.4 38.963 1.62879 0
490 1 Si 7.91546 13.2461 1.63064 0
491 1 Si 191.283 38.8962 1.62369 0
492 1 Si 194.425 39.6808 1.63793 0
493 1 Si 14.4414 14.4082 1.6343 0
494 1 Si 17.7743 15.0068 1.64529 0
495 1 Si 112.081 37.7778 1.61383 0
496 1 Si 29.9899 14.7472 1.61902 0
497 1 Si 35.483 15.625 1.63146 0
498 1 Si 32.5482 16.7321 1.63477 0
499 1 Si 123.286 39.0655 1.61634 0
500 1 Si 129.793 39.0885 1.6263 0
501 1 Si 132.881 38.6366 1.61387 0
502 1 Si 52.1275 14.6567 1.62397 0
503 1 Si 48.8859 15.0514 1.63635 0
504 1 Si 156.662 42.9034 1.62312 0
505 1 Si 150.851 42.9096 1.60658 0
506 1 Si 153.66 44.3092 1.61237 0
507 1 Si 57.0499 14.7807 1.61588 0
508 1 Si 60.2936 15.138 1.63537 0
509 1 Si 164.423 42.4831 1.61983 0
510 1 Si 170.268 43.0902 1.63227 0
511 1 Si 167.282 43.7722 1.62494 0
512 1 Si 76.6234 13.2356 1.63542 0
513 1 Si 71.4065 14.1433 1.60254 0
514 1 Si 74.3996 15.5604 1.62436 0
515 1 Si 174.354 41.8219 1.6254 0
516 1 Si 177.391 41.3818 1.64574 0
517 1 Si 87.5019 12.8711 1.60027 0
518 1 Si 186.298 40.2851 1.6283 0
519 1 Si 189.181 41.4612 1.62431 0
520 1 Si 183.397 41.3175 1.63973 0
521 1 Si 105.619 42.0106 1.63145 0
522 1 Si 104.449 39.0435 1.62484 0
523 1 Si 9.0127 16.8257 1.63254 0
524 1 Si 12.4267 17.2992 1.63619 0
525 1 Si 24.369 16.2684 1.64628 0
526 1 Si 27.5219 16.7221 1.62042 0
527 1 Si 134.69 41.1539 1.63597 0
528 1 Si 137.844 40.7464 1.64203 0
529 1 Si 40.1804 14.89 1.62915 0
530 1 Si 38.191 17.414 1.60909 0
531 1 Si 43.3423 15.0033 1.63449 0
532 1 Si 143.953 41.3168 1.64759 0
533 1 Si 147.079 41.6511 1.62709 0
534 1 Si 54.5939 17.021 1.62657 0
535 1 Si 156.938 45.9655 1.63128 0
536 1 Si 164.6 45.5632 1.62543 0
537 1 Si 159.276 47.7563 1.63743 0
538 1 Si 162.198 47.2386 1.59907 0
539 1 Si 66.4534 15.6544 1.62806 0
540 1 Si 69.4413 16.554 1.60681 0
541 1 Si 195.227 42.8824 1.63707 0
542 1 Si 189.447 44.7509 1.62847 0
543 1 Si 192.769 45.2675 1.63061 0
544 1 Si 83.0286 16.6582 1.62275 0
545 1 Si 86.2989 15.9795 1.64045 0
546 1 Si 96.2539 15.1391 1.62768 0
547 1 Si 93.1545 14.8049 1.62117 0
548 1 Si 98.0129 17.7735 1.62112 0
549 1 Si 7.11846 20.0207 1.66045 0
550 1 Si 19.0097 18.073 1.64115 0
551 1 Si 22.2328 18.6521 1.64251 0
552 1 Si 139.004 43.6544 1.64497 0
553 1 Si 142.103 43.9424 1.61878 0
554 1 Si 28.7594 19.5665 1.63231 0
555 1 Si 31.8817 19.8526 1.57988 0
556 1 Si 147.913 44.8062 1.62152 0
557 1 Si 44.5477 18.2306 1.63763 0
558 1 Si 47.8624 18.5655 1.61858 0
559 1 Si 174.981 45.0113 1.6322 0
560 1 Si 172.077 46.1026 1.63211 0
561 1 Si 61.413 18.2313 1.61399 0
562 1 Si 64.5638 18.0805 1.60676 0
563 1 Si 182.291 44.1485 1.6206 0
564 1 Si 179.213 43.8764 1.6348 0
565 1 Si 74.7443 18.9688 1.61675 0
566 1 Si 69.3543 19.698 1.64155 0
567 1 Si 72.1229 21.255 1.62111 0
568 1 Si 183.558 47.0179 1.61907 0
569 1 Si 186.93 47.1627 1.63482 0
570 1 Si 80.9583 19.4135 1.63307 0
571 1 Si 77.6846 20.4571 1.62738 0
572 1 Si 88.6023 18.2247 1.6241 0
573 1 Si 91.7832 17.6931 1.62433 0
574 1 Si 104.97 47.1615 1.62529 0
575 1 Si 103.227 44.3503 1.62235 0
576 1 Si 13.8592 20.5588 1.61806 0
577 1 Si 8.13931 23.5617 1.61753 0
578 1 Si 13.7345 24.0318 1.63105 0
579 1 Si 10.8866 25.609 1.62518 0
580 1 Si 137.549 46.4538 1.62936 0
581 1 Si 17.1033 20.6814 1.62856 0
582 1 Si 142.568 47.1424 1.62283 0
583 1 Si 145.748 47.803 1.64564 0
584 1 Si 23.6494 21.5424 1.62616 0
585 1 Si 26.8172 21.9815 1.62417 0
586 1 Si 152.113 47.1335 1.60345 0
587 1 Si 154.954 48.3162 1.62315 0
588 1 Si 39.3315 20.4998 1.6331 0
589 1 Si 42.6454 21.0586 1.63012 0
590 1 Si 167.379 46.9115 1.61297 0
591 1 Si 177.795 46.6259 1.59637 0
592 1 Si 54.9003 20.5873 1.62381 0
593 1 Si 60.877 21.4808 1.63185 0
594 1 Si 57.6828 22.5795 1.61618 0
595 1 Si 66.2979 20.6928 1.60362 0
596 1 Si 193.611 48.4848 1.63965 0
597 1 Si 196.947 48.7928 1.61884 0
598 1 Si 82.4179 22.3187 1.62127 0
599 1 Si 88.329 21.4259 1.6178 0
600 1 Si 85.5814 23.1106 1.63056 0
601 1 Si 96.8241 20.7842 1.62894 0
602 1 Si 93.5453 20.4645 1.63065 0
603 1 Si 2.89767 48.8904 1.61006 0
604 1 Si 5.02861 46.5979 1.63336 0
605 1 Si 118.65 51.6779 1.58857 0
606 1 Si 121.798 52.7305 1.63222 0
607 1 Si 98.9874 23.3558 1.62886 0
608 1 Si 18.4973 23.6196 1.61371 0
609 1 Si 21.7004 24.0709 1.61853 0
610 1 Si 139.734 48.7677 1.62943 0
611 1 Si 31.5844 23.041 1.63994 0
612 1 Si 28.6984 24.5165 1.60474 0
613 1 Si 37.3465 23.0485 1.60112 0
614 1 Si 34.4354 24.2722 1.62415 0
615 1 Si 151.04 50.0717 1.64035 0
616 1 Si 153.934 51.1812 1.63297 0
617 1 Si 49.0984 22.0833 1.63985 0
618 1 Si 43.7782 24.2888 1.62947 0
619 1 Si 47.1062 25.0262 1.64706 0
620 1 Si 52.4121 22.9306 1.6224 0
621 1 Si 159.466 50.7569 1.61323 0
622 1 Si 162.469 50.2378 1.6008 0
623 1 Si 63.9512 22.9157 1.62665 0
624 1 Si 169.094 49.4957 1.63679 0
625 1 Si 172.287 49.5383 1.59703 0
626 1 Si 77.0901 23.7393 1.62769 0
627 1 Si 71.4804 24.6393 1.62051 0
628 1 Si 74.5616 25.9506 1.63282 0
629 1 Si 180.517 48.4392 1.63822 0
630 1 Si 80.1576 24.6819 1.62586 0
631 1 Si 187.924 50.2874 1.61636 0
632 1 Si 191.175 50.8439 1.61429 0
633 1 Si 91.3219 22.7813 1.6234 0
634 1 Si 198.647 51.6007 1.63018 0
635 1 Si 202.038 51.3627 1.62158 0
636 1 Si 106.534 51.9233 1.62335 0
637 1 Si 103.744 50.1157 1.63096 0
638 1 Si 113.68 54.3656 1.6258 0
639 1 Si 116.906 54.3037 1.62175 0
640 1 Si 16.493 26.1012 1.60429 0
641 1 Si 134.98 51.8513 1.63532 0
642 1 Si 138.355 51.7101 1.63205 0
643 1 Si 23.4134 26.7552 1.62116 0
644 1 Si 26.6675 27.0005 1.6282 0
645 1 Si 145.83 51.3248 1.62264 0
646 1 Si 148.897 52.3308 1.63333 0
647 1 Si 155.306 53.8978 1.61102 0
648 1 Si 158.343 53.5488 1.62405 0
649 1 Si 38.3531 26.0868 1.60413 0
650 1 Si 41.5182 26.8121 1.63085 0
651 1 Si 164.355 52.5368 1.62601 0
652 1 Si 167.403 52.0844 1.61253 0
653 1 Si 53.5075 26.2385 1.61833 0
654 1 Si 56.8795 25.8688 1.61233 0
655 1 Si 179.892 51.5953 1.6194 0
656 1 Si 173.709 52.6894 1.64132 0
657 1 Si 177.023 53.315 1.6171 0
658 1 Si 65.1536 25.9688 1.63919 0
659 1 Si 68.5946 26.6766 1.63572 0
660 1 Si 182.665 53.3592 1.61079 0
661 1 Si 185.963 52.9447 1.62946 0
662 1 Si 91.9524 25.9702 1.64088 0
663 1 Si 86.1992 26.2636 1.6268 0
664 1 Si 89.1195 27.5507 1.64188 0
665 1 Si 191.05 54.1305 1.62155 0
666 1 Si 196.735 54.288 1.61845 0
667 1 Si 193.757 55.8412 1.63266 0
668 1 Si 97.9986 26.5876 1.63868 0
669 1 Si 94.8136 27.6226 1.6517 0
670 1 Si 106.154 55.0791 1.637 0
671 1 Si 108.57 57.2525 1.63467 0
672 1 Si 111.881 57.0594 1.63158 0
673 1 Si 10.8092 29.0779 1.62558 0
674 1 Si 118.89 56.7356 1.61054 0
675 1 Si 122.088 56.0485 1.62281 0
676 1 Si 18.3263 29.0399 1.63591 0
677 1 Si 21.7225 29.4771 1.62238 0
678 1 Si 129.866 54.7497 1.61663 0
679 1 Si 133.199 54.5262 1.62791 0
680 1 Si 35.3832 27.2465 1.61783 0
681 1 Si 27.465 30.0757 1.63579 0
682 1 Si 34.1028 30.1392 1.62881 0
683 1 Si 30.7696 30.7562 1.61106 0
684 1 Si 140.391 54.314 1.62429 0
685 1 Si 143.766 54.196 1.6392 0
686 1 Si 149.925 55.3535 1.62711 0
687 1 Si 155.297 57.0125 1.62662 0
688 1 Si 152.264 57.4377 1.6206 0
689 1 Si 48.1378 28.4886 1.6293 0
690 1 Si 51.5843 29.3814 1.63323 0
691 1 Si 160.05 56.1291 1.62552 0
692 1 Si 163.063 55.3613 1.61918 0
693 1 Si 59.1778 28.3359 1.63832 0
694 1 Si 62.5479 28.0854 1.6254 0
695 1 Si 168.508 54.9799 1.6063 0
696 1 Si 171.636 55.4111 1.61847 0
697 1 Si 80.7649 27.8287 1.63174 0
698 1 Si 75.1429 29.2878 1.66031 0
699 1 Si 78.4727 30.19 1.62392 0
700 1 Si 178.138 56.4197 1.62716 0
701 1 Si 181.406 56.3596 1.623 0
702 1 Si 83.8992 28.4809 1.62469 0
703 1 Si 188.04 55.4673 1.61507 0
704 1 Si 100.257 29.0831 1.62282 0
705 1 Si 198.208 57.0201 1.61761 0
706 1 Si 204.743 53.5548 1.63694 0
707 1 Si 203.903 56.5573 1.61643 0
708 1 Si 201.125 57.8627 1.60973 0
709 1 Si 103.041 55.8864 1.62102 0
710 1 Si 100.512 50.902 1.63827 0
711 1 Si 100.468 54.1091 1.64248 0
712 1 Si 107.069 60.1336 1.60438 0
713 1 Si 103.933 60.9567 1.62645 0
714 1 Si 101.685 58.7993 1.62823 0
715 1 Si 113.751 59.7794 1.61682 0
716 1 Si 117.103 59.4702 1.63617 0
717 1 Si 13.235 31.7926 1.62877 0
718 1 Si 16.6282 31.8123 1.62646 0
719 1 Si 24.3948 31.4797 1.63204 0
720 1 Si 124.22 58.6552 1.62401 0
721 1 Si 130.097 58.1096 1.62782 0
722 1 Si 127.384 59.9145 1.62751 0
723 1 Si 135.218 57.0752 1.62593 0
724 1 Si 138.555 57.1123 1.63425 0
725 1 Si 42.3919 29.9929 1.61368 0
726 1 Si 36.6791 32.3122 1.62945 0
727 1 Si 40.1372 32.4491 1.62448 0
728 1 Si 45.6378 30.9743 1.62491 0
729 1 Si 144.879 57.4382 1.63125 0
730 1 Si 148.02 57.8399 1.62431 0
731 1 Si 52.8576 33.299 1.62959 0
732 1 Si 58.4098 31.5414 1.61685 0
733 1 Si 56.1945 33.9543 1.62902 0
734 1 Si 158.05 58.5677 1.62069 0
735 1 Si 69.3043 29.9799 1.62258 0
736 1 Si 63.7061 31.0482 1.64881 0
737 1 Si 66.7322 32.0382 1.64698 0
738 1 Si 165.858 56.716 1.63295 0
739 1 Si 72.3782 31.3535 1.62192 0
740 1 Si 171.012 58.6758 1.63659 0
741 1 Si 176.574 59.3023 1.63424 0
742 1 Si 173.574 60.4576 1.62521 0
743 1 Si 88.6469 30.7029 1.62594 0
744 1 Si 85.4742 31.2758 1.625 0
745 1 Si 183.564 58.7871 1.61937 0
746 1 Si 186.81 58.4791 1.6224 0
747 1 Si 94.2321 30.8176 1.61834 0
748 1 Si 91.3776 32.313 1.63347 0
749 1 Si 99.3884 32.3432 1.63044 0
750 1 Si 96.302 33.2705 1.62983 0
751 1 Si 193.3 59.1679 1.63551 0
752 1 Si 196.373 59.5347 1.62707 0
753 1 Si 3.28434 54.4219 1.6216 0
754 1 Si 4.83524 51.5588 1.64634 0
755 1 Si 12.744 35.1368 1.62883 0
756 1 Si 9.92222 36.7119 1.62386 0
757 1 Si 18.505 34.5119 1.58051 0
758 1 Si 14.7114 37.8347 1.62232 0
759 1 Si 17.7987 37.622 1.61695 0
760 1 Si 23.8276 34.6795 1.63152 0
761 1 Si 21.1545 36.3652 1.62299 0
762 1 Si 108.666 62.9522 1.63288 0
763 1 Si 112.089 62.7002 1.61281 0
764 1 Si 31.4006 33.8367 1.61624 0
765 1 Si 29.0101 35.8192 1.59077 0
766 1 Si 26.067 36.8161 1.62705 0
767 1 Si 122.575 61.4302 1.64137 0
768 1 Si 119.313 61.8443 1.63418 0
769 1 Si 34.4904 34.6668 1.62615 0
770 1 Si 133.161 59.58 1.60936 0
771 1 Si 45.613 34.4306 1.61828 0
772 1 Si 47.9549 37.1806 1.62979 0
773 1 Si 51.4961 36.8437 1.63566 0
774 1 Si 140.043 60.0517 1.64554 0
775 1 Si 143.325 60.4415 1.62798 0
776 1 Si 61.2448 32.9975 1.61424 0
777 1 Si 150.39 59.8979 1.6183 0
778 1 Si 165.259 59.7567 1.61815 0
779 1 Si 159.209 61.534 1.63421 0
780 1 Si 162.537 61.5247 1.61261 0
781 1 Si 80.2609 33.1125 1.62926 0
782 1 Si 72.314 34.7879 1.6385 0
783 1 Si 78.5333 35.8541 1.61635 0
784 1 Si 75.2449 36.3287 1.62402 0
785 1 Si 83.6518 33.9115 1.62673 0
786 1 Si 168.352 60.6179 1.59858 0
787 1 Si 177.692 62.3 1.6311 0
788 1 Si 183.285 61.9804 1.62368 0
789 1 Si 180.564 63.5483 1.63863 0
790 1 Si 101.445 34.8751 1.63201 0
791 1 Si 0.269964 59.436 1.62287 0
792 1 Si 3.03161 60.8154 1.63397 0
793 1 Si 4.93938 57.6397 1.61721 0
794 1 Si 188.336 61.3921 1.61966 0
795 1 Si 191.53 62.0359 1.64912 0
796 1 Si 106.108 65.1536 1.60317 0
797 1 Si 103.054 64.0293 1.61045 0
798 1 Si 127.957 63.2537 1.61316 0
799 1 Si 124.768 63.8248 1.62896 0
800 1 Si 134.845 62.4465 1.62797 0
801 1 Si 138.155 62.6943 1.6308 0
802 1 Si 150.808 62.9953 1.63235 0
803 1 Si 144.615 63.6501 1.64324 0
804 1 Si 147.851 64.4365 1.61395 0
805 1 Si 42.2527 35.0627 1.62041 0
806 1 Si 34.9381 37.784 1.63507 0
807 1 Si 40.9767 38.1288 1.62527 0
808 1 Si 37.7697 39.2118 1.61396 0
809 1 Si 157.143 64.1816 1.63069 0
810 1 Si 153.753 64.5155 1.61389 0
811 1 Si 66.6428 35.2908 1.62187 0
812 1 Si 69.4807 36.757 1.61588 0
813 1 Si 164.158 64.285 1.62954 0
814 1 Si 167.356 63.6663 1.62777 0
815 1 Si 85.5523 36.7789 1.6102 0
816 1 Si 80.3773 38.6261 1.63219 0
817 1 Si 83.5834 39.4688 1.6144 0
818 1 Si 172.818 63.5785 1.62049 0
819 1 Si 175.666 64.7916 1.62506 0
820 1 Si 91.5561 35.4899 1.62171 0
821 1 Si 88.9149 37.4451 1.64393 0
822 1 Si 186.054 63.6407 1.61675 0
823 1 Si 94.7636 36.1524 1.6238 0
824 1 Si 202.313 60.7026 1.60466 0
825 1 Si 197.502 62.3812 1.63155 0
826 1 Si 200.512 63.1289 1.63941 0
827 1 Si 11.0472 39.8959 1.62242 0
828 1 Si 14.1503 41.076 1.60953 0
829 1 Si 114.54 64.9671 1.61892 0
830 1 Si 117.92 64.7298 1.6295 0
831 1 Si 20.3467 39.5041 1.62605 0
832 1 Si 29.4523 38.9127 1.61565 0
833 1 Si 26.4789 39.9515 1.63332 0
834 1 Si 32.4219 39.7839 1.61218 0
835 1 Si 130.245 65.864 1.64453 0
836 1 Si 133.604 65.4474 1.6196 0
837 1 Si 43.1361 40.6056 1.6247 0
838 1 Si 46.4991 40.4373 1.62733 0
839 1 Si 57.9397 36.8934 1.62333 0
840 1 Si 53.6797 40.3398 1.61334 0
841 1 Si 57.0974 40.1524 1.62272 0
842 1 Si 158.978 66.9375 1.64594 0
843 1 Si 162.33 66.9547 1.63271 0
844 1 Si 61.1136 36.1407 1.62304 0
845 1 Si 170.097 65.2219 1.63546 0
846 1 Si 64.0696 37.3577 1.62776 0
847 1 Si 175.805 68.0031 1.63314 0
848 1 Si 180.769 66.7004 1.62165 0
849 1 Si 178.739 69.1702 1.62704 0
850 1 Si 75.197 39.5036 1.61383 0
851 1 Si 67.9516 39.7534 1.62255 0
852 1 Si 72.986 41.6993 1.61439 0
853 1 Si 69.8818 42.1988 1.63676 0
854 1 Si 195.95 65.0604 1.64502 0
855 1 Si 192.763 65.2527 1.64142 0
856 1 Si 78.0894 40.8213 1.60908 0
857 1 Si 201.227 66.1167 1.60949 0
858 1 Si 198.241 67.2418 1.62979 0
859 1 Si 113.513 67.9561 1.6415 0