ITEM: TIMESTEP
942
ITEM: NUMBER OF ATOMS
15516
ITEM: BOX BOUNDS pp pp pp
0.0000000000000000e+00 2.0487206274538565e+02
0.0000000000000000e+00 1.7623108466441477e+02
-1.0000000000000000e+02 1.0000000000000000e+02
ITEM: ATOMS id type element x y z v_uncoordination
1 1 Si 111.762 2.79751 1.61988 0
2 1 Si 113.859 0.0116984 1.6213 0
3 1 Si 111.596 6.20217 1.63522 0
4 1 Si 118.229 4.12025 1.61879 0
5 1 Si 117.013 1.00876 1.62581 0
6 1 Si 117.324 7.32958 1.63078 0
7 1 Si 114.137 8.34417 1.63113 0
8 1 Si 108.574 2.25372 1.61006 0
9 1 Si 107.781 175.365 1.60626 0
10 1 Si 112.967 172.748 1.62509 0
11 1 Si 109.623 172.583 1.6213 0
12 1 Si 106.692 4.98414 1.61833 0
13 1 Si 108.556 7.67537 1.63196 0
14 1 Si 121.442 3.70822 1.63457 0
15 1 Si 122.245 0.647689 1.62068 0
16 1 Si 119.539 175.131 1.60614 0
17 1 Si 123.858 5.82126 1.63779 0
18 1 Si 123.024 8.99656 1.62502 0
19 1 Si 119.759 9.71569 1.64697 0
20 1 Si 127.933 1.37598 1.61862 0
21 1 Si 126.933 4.58625 1.63131 0
22 1 Si 125.3 175.809 1.64381 0
23 1 Si 130.605 175.412 1.616 0
24 1 Si 133.687 3.92968 1.60754 0
25 1 Si 133.233 0.801287 1.62763 0
26 1 Si 132.135 6.61789 1.62734 0
27 1 Si 129.03 6.98082 1.61555 0
28 1 Si 128.879 170.874 1.61701 0
29 1 Si 131.841 172.078 1.61812 0
30 1 Si 126.126 172.712 1.61881 0
31 1 Si 136.756 4.50129 1.61154 0
32 1 Si 137.63 1.50556 1.6259 0
33 1 Si 135.768 175.233 1.60939 0
34 1 Si 138.145 7.34577 1.63644 0
35 1 Si 133.492 9.48819 1.62217 0
36 1 Si 136.558 10.106 1.63508 0
37 1 Si 141.696 3.92988 1.61423 0
38 1 Si 140.549 0.676012 1.62323 0
39 1 Si 141.281 7.30136 1.61967 0
40 1 Si 144.731 3.52236 1.62779 0
41 1 Si 145.569 0.51023 1.62278 0
42 1 Si 142.337 171.48 1.60672 0
43 1 Si 139.928 173.556 1.62535 0
44 1 Si 144.772 173.695 1.61 0
45 1 Si 149.536 4.29273 1.60601 0
46 1 Si 146.866 5.8847 1.61164 0
47 1 Si 148.617 1.34365 1.63231 0
48 1 Si 151.862 6.38857 1.62015 0
49 1 Si 147.624 8.98793 1.64592 0
50 1 Si 150.797 9.403 1.6124 0
51 1 Si 154.881 5.5874 1.60987 0
52 1 Si 155.54 2.26512 1.62885 0
53 1 Si 150.472 175.139 1.62227 0
54 1 Si 153.699 175.678 1.64385 0
55 1 Si 160.471 4.59893 1.61651 0
56 1 Si 159.698 7.72803 1.61275 0
57 1 Si 158.781 1.8773 1.62973 0
58 1 Si 156.61 8.56251 1.62232 0
59 1 Si 163.654 4.48811 1.63091 0
60 1 Si 164.983 7.39478 1.63696 0
61 1 Si 162.449 9.43387 1.61782 0
62 1 Si 165.28 1.7661 1.63143 0
63 1 Si 160.431 175.264 1.63664 0
64 1 Si 163.714 175.141 1.63583 0
65 1 Si 170.027 4.92553 1.63068 0
66 1 Si 168.252 7.57708 1.62471 0
67 1 Si 168.451 2.16615 1.62961 0
68 1 Si 173.209 4.96612 1.61598 0
69 1 Si 175.587 7.13364 1.61635 0
70 1 Si 174.21 9.98813 1.62087 0
71 1 Si 170.708 9.79635 1.61703 0
72 1 Si 174.884 2.30233 1.61822 0
73 1 Si 170.117 175.786 1.62366 0
74 1 Si 173.283 175.842 1.63737 0
75 1 Si 178.752 6.17928 1.63857 0
76 1 Si 178.007 2.94954 1.62716 0
77 1 Si 181.815 8.02162 1.63153 0
78 1 Si 176.736 12.368 1.60002 0
79 1 Si 182.864 11.4467 1.6278 0
80 1 Si 180.179 13.4497 1.62317 0
81 1 Si 184.627 6.30641 1.61849 0
82 1 Si 184.658 3.07908 1.60616 0
83 1 Si 179.748 0.264417 1.62255 0
84 1 Si 182.812 0.562712 1.62417 0
85 1 Si 187.751 7.44884 1.61027 0
86 1 Si 189.319 4.44917 1.62264 0
87 1 Si 187.517 1.72275 1.60173 0
88 1 Si 198.247 4.3426 1.59478 0
89 1 Si 201.268 5.16807 1.63039 0
90 1 Si 196.848 7.36903 1.6262 0
91 1 Si 201.713 8.2697 1.62915 0
92 1 Si 198.971 9.8932 1.60782 0
93 1 Si 199.079 1.10212 1.62284 0
94 1 Si 203.501 2.9108 1.64042 0
95 1 Si 202.257 176.193 1.62774 0
96 1 Si 193.63 7.65533 1.62251 0
97 1 Si 192.533 4.00528 1.62892 0
98 1 Si 196.729 175.181 1.61363 0
99 1 Si 193.591 0.248309 1.62637 0
100 1 Si 1.70253 3.83088 1.64624 0
101 1 Si 2.17294 7.1163 1.62422 0
102 1 Si 204.682 9.29105 1.62186 0
103 1 Si 3.80456 1.25349 1.62704 0
104 1 Si 4.77348 9.07643 1.59733 0
105 1 Si 7.08142 6.51607 1.62748 0
106 1 Si 6.90443 2.53427 1.65545 0
107 1 Si 204.304 173.435 1.64215 0
108 1 Si 2.78325 174.131 1.62375 0
109 1 Si 103.415 4.91234 1.62913 0
110 1 Si 107.768 11.0783 1.61628 0
111 1 Si 105.09 13.4185 1.62396 0
112 1 Si 102.373 11.6268 1.61865 0
113 1 Si 101.939 8.14377 1.6246 0
114 1 Si 102.415 1.45584 1.62838 0
115 1 Si 104.546 174.973 1.61491 0
116 1 Si 113.505 11.668 1.64495 0
117 1 Si 110.44 12.9831 1.6421 0
118 1 Si 128.552 10.1967 1.63574 0
119 1 Si 125.472 11.2967 1.6174 0
120 1 Si 142.463 10.3995 1.64154 0
121 1 Si 145.477 11.3391 1.61013 0
122 1 Si 152.449 12.142 1.63445 0
123 1 Si 155.757 11.8966 1.61446 0
124 1 Si 169.082 12.4965 1.61815 0
125 1 Si 162.884 12.5942 1.62696 0
126 1 Si 165.99 13.4308 1.60596 0
127 1 Si 171.242 14.8259 1.61185 0
128 1 Si 174.486 14.7296 1.62659 0
129 1 Si 188.854 10.7756 1.62566 0
130 1 Si 186.29 13.1284 1.62768 0
131 1 Si 192.295 11.2888 1.61767 0
132 1 Si 0.516663 12.439 1.61583 0
133 1 Si 199.51 13.102 1.61822 0
134 1 Si 202.629 14.2768 1.61379 0
135 1 Si 3.83872 12.4297 1.62216 0
136 1 Si 115.943 13.9593 1.64619 0
137 1 Si 119.118 13.0151 1.65041 0
138 1 Si 131.388 11.8386 1.63658 0
139 1 Si 137.762 13.0887 1.64778 0
140 1 Si 140.925 13.2972 1.63864 0
141 1 Si 145.172 14.5961 1.60947 0
142 1 Si 150.692 14.8775 1.61349 0
143 1 Si 147.746 16.3178 1.6208 0
144 1 Si 157.437 14.895 1.63541 0
145 1 Si 160.786 15.1289 1.61417 0
146 1 Si 165.944 16.5936 1.60316 0
147 1 Si 169.075 17.2361 1.62583 0
148 1 Si 175.645 17.6142 1.62417 0
149 1 Si 181.4 16.7342 1.63241 0
150 1 Si 178.722 18.4446 1.62535 0
151 1 Si 193.852 15.066 1.62421 0
152 1 Si 197.202 15.4497 1.61715 0
153 1 Si 109.95 16.2704 1.63166 0
154 1 Si 104.596 17.2466 1.65371 0
155 1 Si 107.528 18.4943 1.61193 0
156 1 Si 115.326 17.2409 1.62531 0
157 1 Si 112.336 18.3733 1.62507 0
158 1 Si 124.797 14.5597 1.6373 0
159 1 Si 121.491 15.4359 1.62561 0
160 1 Si 132.764 14.8578 1.62879 0
161 1 Si 127.317 16.8313 1.64001 0
162 1 Si 130.711 17.3058 1.62479 0
163 1 Si 136.018 15.8035 1.62401 0
164 1 Si 142.347 16.2393 1.63017 0
165 1 Si 152.405 17.5125 1.63191 0
166 1 Si 155.608 17.7264 1.62775 0
167 1 Si 162.888 17.7068 1.62362 0
168 1 Si 170.187 20.1542 1.63451 0
169 1 Si 173.385 19.8638 1.61697 0
170 1 Si 187.077 16.7434 1.61119 0
171 1 Si 184.368 18.6384 1.61458 0
172 1 Si 192.878 18.6752 1.62813 0
173 1 Si 189.577 19.2559 1.6123 0
174 1 Si 202.07 17.4742 1.61057 0
175 1 Si 198.895 18.3481 1.60456 0
176 1 Si 204.067 19.9547 1.61471 0
177 1 Si 2.27563 20.3056 1.6134 0
178 1 Si 4.68449 18.3668 1.60992 0
179 1 Si 5.62569 15.2921 1.61846 0
180 1 Si 120.547 18.6921 1.61765 0
181 1 Si 117.446 19.7718 1.62412 0
182 1 Si 137.694 18.804 1.62401 0
183 1 Si 140.998 19.4066 1.65296 0
184 1 Si 147.258 19.5068 1.60638 0
185 1 Si 150.368 19.9359 1.63436 0
186 1 Si 162.383 20.9534 1.62067 0
187 1 Si 156.285 20.9419 1.63396 0
188 1 Si 159.259 22.224 1.60731 0
189 1 Si 164.977 23.1276 1.62564 0
190 1 Si 168.331 22.8083 1.63895 0
191 1 Si 175.26 22.2942 1.62813 0
192 1 Si 178.319 21.5312 1.62232 0
193 1 Si 194.887 22.0407 1.63312 0
194 1 Si 198.207 21.7105 1.62581 0
195 1 Si 102.651 20.4101 1.62552 0
196 1 Si 99.8097 13.7733 1.61597 0
197 1 Si 98.5321 16.9168 1.61492 0
198 1 Si 99.4393 20.0815 1.61495 0
199 1 Si 108.164 21.7752 1.61649 0
200 1 Si 111.326 21.453 1.6165 0
201 1 Si 122.964 20.8076 1.62268 0
202 1 Si 125.937 19.6518 1.61905 0
203 1 Si 132.763 19.9847 1.61137 0
204 1 Si 135.801 21.4143 1.63167 0
205 1 Si 142.443 22.7869 1.63777 0
206 1 Si 145.671 22.3212 1.6263 0
207 1 Si 150.834 23.0441 1.62341 0
208 1 Si 154.018 23.3587 1.6144 0
209 1 Si 158.414 25.435 1.61093 0
210 1 Si 163.923 26.2682 1.62092 0
211 1 Si 160.798 27.5728 1.62063 0
212 1 Si 170.459 25.2687 1.63092 0
213 1 Si 173.613 24.9168 1.63057 0
214 1 Si 185.406 21.9977 1.61818 0
215 1 Si 188.715 22.5857 1.59799 0
216 1 Si 203.525 23.1926 1.60519 0
217 1 Si 3.0317 23.4298 1.61149 0
218 1 Si 0.94215 25.7359 1.61417 0
219 1 Si 6.78532 20.7416 1.60353 0
220 1 Si 8.83618 16.2002 1.61355 0
221 1 Si 9.55075 19.4212 1.63824 0
222 1 Si 106.445 24.6741 1.63588 0
223 1 Si 103.151 23.9215 1.62046 0
224 1 Si 116.364 22.8735 1.59554 0
225 1 Si 113.33 23.8227 1.60658 0
226 1 Si 123.361 23.9699 1.64448 0
227 1 Si 116.414 26.0674 1.62712 0
228 1 Si 121.963 26.7723 1.60206 0
229 1 Si 118.89 27.9268 1.61072 0
230 1 Si 127.929 21.9897 1.641 0
231 1 Si 130.944 22.4332 1.63695 0
232 1 Si 136.732 24.6706 1.60883 0
233 1 Si 141.688 26.4953 1.61878 0
234 1 Si 138.544 27.5484 1.61998 0
235 1 Si 147.956 24.6497 1.61991 0
236 1 Si 155.219 26.3227 1.61544 0
237 1 Si 166.333 28.4633 1.62881 0
238 1 Si 169.589 28.3228 1.62445 0
239 1 Si 180.323 23.8486 1.61719 0
240 1 Si 183.377 24.6053 1.62353 0
241 1 Si 190.694 25.4708 1.62264 0
242 1 Si 194.104 25.5374 1.61208 0
243 1 Si 200.583 24.39 1.6377 0
244 1 Si 6.08563 23.8182 1.61777 0
245 1 Si 113.38 26.9768 1.60966 0
246 1 Si 107.824 27.9485 1.63251 0
247 1 Si 111.11 29.2653 1.62835 0
248 1 Si 126.422 24.6312 1.62644 0
249 1 Si 131.693 25.406 1.61443 0
250 1 Si 134.397 26.789 1.61494 0
251 1 Si 147.063 27.848 1.62192 0
252 1 Si 143.879 29.2961 1.6052 0
253 1 Si 175.701 27.1573 1.63179 0
254 1 Si 178.69 26.4704 1.6336 0
255 1 Si 183.171 27.9702 1.59919 0
256 1 Si 189.48 28.5002 1.61761 0
257 1 Si 187.139 30.67 1.62316 0
258 1 Si 184.018 31.2319 1.61059 0
259 1 Si 201.358 27.8904 1.62499 0
260 1 Si 203.835 30.3831 1.61209 0
261 1 Si 1.91492 29.1416 1.61909 0
262 1 Si 128.84 26.5575 1.63145 0
263 1 Si 124.78 28.6146 1.60034 0
264 1 Si 128.117 29.4837 1.60523 0
265 1 Si 134.076 29.9671 1.61381 0
266 1 Si 137.125 30.8752 1.63675 0
267 1 Si 153.12 28.8963 1.62285 0
268 1 Si 149.822 29.6157 1.61089 0
269 1 Si 159.774 30.8342 1.64326 0
270 1 Si 165.421 31.4453 1.62297 0
271 1 Si 162.435 32.4786 1.61692 0
272 1 Si 171.87 30.7478 1.62465 0
273 1 Si 175.03 30.1975 1.62812 0
274 1 Si 180.195 29.1197 1.63226 0
275 1 Si 195.808 28.7654 1.62034 0
276 1 Si 191.181 31.1774 1.61466 0
277 1 Si 194.274 31.7413 1.62347 0
278 1 Si 198.935 29.9789 1.62432 0
279 1 Si 105.622 30.4528 1.63396 0
280 1 Si 102.219 29.8757 1.63024 0
281 1 Si 100.911 26.6291 1.64617 0
282 1 Si 118.144 31.1012 1.5924 0
283 1 Si 112.377 32.5532 1.60542 0
284 1 Si 114.523 35.2983 1.60959 0
285 1 Si 117.431 34.2756 1.62677 0
286 1 Si 124.171 31.5951 1.6208 0
287 1 Si 121.073 32.0411 1.61432 0
288 1 Si 131.024 31.1703 1.61207 0
289 1 Si 154.265 31.8606 1.60138 0
290 1 Si 149.019 32.8206 1.61505 0
291 1 Si 151.926 34.0785 1.60983 0
292 1 Si 157.17 33.038 1.61727 0
293 1 Si 167.677 33.7015 1.61133 0
294 1 Si 170.929 33.8374 1.62053 0
295 1 Si 177.985 31.4298 1.64337 0
296 1 Si 188.868 33.3047 1.59809 0
297 1 Si 200.155 33.1549 1.61808 0
298 1 Si 203.384 33.733 1.61988 0
299 1 Si 4.76365 31.2563 1.6351 0
300 1 Si 7.95487 26.2935 1.61815 0
301 1 Si 7.54759 29.4519 1.60293 0
302 1 Si 107.115 33.492 1.62644 0
303 1 Si 110.169 34.8313 1.62118 0
304 1 Si 126.651 33.6686 1.63365 0
305 1 Si 121.737 34.9857 1.6122 0
306 1 Si 124.649 35.9635 1.6157 0
307 1 Si 129.869 34.1416 1.64925 0
308 1 Si 121.198 53.2093 1.61772 0
309 1 Si 123.412 50.678 1.60787 0
310 1 Si 117.984 51.8634 1.62341 0
311 1 Si 121.328 47.9421 1.61199 0
312 1 Si 117.952 48.3799 1.61068 0
313 1 Si 122.379 56.4814 1.61823 0
314 1 Si 126.841 51.3426 1.64096 0
315 1 Si 127.922 54.6975 1.64293 0
316 1 Si 125.666 57.2069 1.62042 0
317 1 Si 115.094 53.7872 1.63868 0
318 1 Si 115.404 57.2376 1.6474 0
319 1 Si 117.549 59.877 1.62688 0
320 1 Si 120.904 59.5088 1.6105 0
321 1 Si 143.483 33.0444 1.64014 0
322 1 Si 137.5 34.4194 1.63121 0
323 1 Si 140.808 35.3442 1.63266 0
324 1 Si 146.389 34.8311 1.64689 0
325 1 Si 152.507 37.2153 1.61989 0
326 1 Si 155.689 36.1145 1.61339 0
327 1 Si 162.882 35.5478 1.62395 0
328 1 Si 165.938 36.2621 1.62323 0
329 1 Si 178.817 34.5002 1.61494 0
330 1 Si 172.746 36.6635 1.63887 0
331 1 Si 176.269 36.9043 1.6385 0
332 1 Si 182.259 34.4368 1.61126 0
333 1 Si 195.179 35.0012 1.64419 0
334 1 Si 198.507 35.97 1.62642 0
335 1 Si 105.139 35.9173 1.63945 0
336 1 Si 100.37 32.7722 1.64249 0
337 1 Si 101.951 35.6808 1.61497 0
338 1 Si 111.488 37.9103 1.62031 0
339 1 Si 114.614 38.7934 1.62282 0
340 1 Si 119.371 36.8651 1.61335 0
341 1 Si 131.55 37.0081 1.65023 0
342 1 Si 134.991 37.0748 1.65252 0
343 1 Si 146.953 38.2509 1.62382 0
344 1 Si 150.074 39.6319 1.65058 0
345 1 Si 157.815 38.3804 1.62438 0
346 1 Si 161.005 37.9451 1.59728 0
347 1 Si 150.439 53.799 1.61193 0
348 1 Si 150.646 50.2045 1.62154 0
349 1 Si 147.435 55.0617 1.60834 0
350 1 Si 149.737 46.5529 1.61659 0
351 1 Si 146.577 46.5766 1.62436 0
352 1 Si 145.483 49.7482 1.60195 0
353 1 Si 144.965 53.028 1.62472 0
354 1 Si 152.19 56.7776 1.6282 0
355 1 Si 153.645 49.5358 1.63585 0
356 1 Si 155.887 51.7127 1.61644 0
357 1 Si 157.255 54.5122 1.64263 0
358 1 Si 155.467 57.1875 1.65361 0
359 1 Si 147.388 58.3703 1.60969 0
360 1 Si 150.475 59.6407 1.63387 0
361 1 Si 167.377 39.0243 1.61013 0
362 1 Si 170.651 39.3554 1.63609 0
363 1 Si 189.258 36.4559 1.62213 0
364 1 Si 183.211 37.7663 1.65196 0
365 1 Si 186.557 38.4847 1.62517 0
366 1 Si 192.567 37.1494 1.61219 0
367 1 Si 12.0717 6.13057 1.60909 0
368 1 Si 9.81593 8.33104 1.62131 0
369 1 Si 14.6657 7.84135 1.61765 0
370 1 Si 14.5307 10.873 1.62195 0
371 1 Si 11.3288 11.315 1.59699 0
372 1 Si 13.0458 3.20611 1.62706 0
373 1 Si 12.2815 0.174859 1.62899 0
374 1 Si 9.05539 175.805 1.62819 0
375 1 Si 0.00351693 36.8063 1.59165 0
376 1 Si 200.736 38.7296 1.60304 0
377 1 Si 203.896 39.9496 1.58805 0
378 1 Si 16.1615 3.46412 1.616 0
379 1 Si 17.3127 6.31735 1.63324 0
380 1 Si 2.32865 39.1327 1.61467 0
381 1 Si 5.23573 38.0581 1.61484 0
382 1 Si 5.5642 34.645 1.6142 0
383 1 Si 17.8837 0.947412 1.62714 0
384 1 Si 22.4169 4.80653 1.64208 0
385 1 Si 20.2649 7.18108 1.62189 0
386 1 Si 21.0456 1.77699 1.63538 0
387 1 Si 15.3308 175.131 1.61462 0
388 1 Si 109.373 40.2282 1.62873 0
389 1 Si 106.509 38.7698 1.61748 0
390 1 Si 25.6079 5.77347 1.64796 0
391 1 Si 26.3897 9.10572 1.64771 0
392 1 Si 20.5793 10.3071 1.62185 0
393 1 Si 23.7345 11.0444 1.63588 0
394 1 Si 27.7024 3.1624 1.62175 0
395 1 Si 26.1699 0.0653665 1.62298 0
396 1 Si 22.7489 175.31 1.64468 0
397 1 Si 31.0072 3.75242 1.63852 0
398 1 Si 32.8354 6.2924 1.62543 0
399 1 Si 32.1422 9.32307 1.63921 0
400 1 Si 29.3588 10.8463 1.6173 0
401 1 Si 34.0888 2.63916 1.62686 0
402 1 Si 33.997 175.848 1.61493 0
403 1 Si 28.3131 173.851 1.6438 0
404 1 Si 31.5602 173.868 1.607 0
405 1 Si 35.9885 6.5416 1.61837 0
406 1 Si 37.3907 2.68118 1.62123 0
407 1 Si 38.9415 5.34358 1.61541 0
408 1 Si 124.165 38.9985 1.619 0
409 1 Si 121.025 39.5582 1.63203 0
410 1 Si 51.3799 5.10989 1.64428 0
411 1 Si 48.3581 6.75263 1.62532 0
412 1 Si 54.568 6.42886 1.64521 0
413 1 Si 55.2495 9.86226 1.62122 0
414 1 Si 48.7212 10.1257 1.63177 0
415 1 Si 50.7203 12.9306 1.62054 0
416 1 Si 53.9812 13.0502 1.61472 0
417 1 Si 51.258 1.77335 1.62557 0
418 1 Si 45.241 5.01576 1.63827 0
419 1 Si 45.4511 1.56183 1.64756 0
420 1 Si 48.491 0.0988892 1.62003 0
421 1 Si 57.2443 4.18595 1.64667 0
422 1 Si 56.7571 0.789152 1.62838 0
423 1 Si 53.7336 175.757 1.63356 0
424 1 Si 129.642 39.8015 1.61755 0
425 1 Si 126.574 40.9209 1.60935 0
426 1 Si 60.4138 5.5014 1.62615 0
427 1 Si 60.66 8.68927 1.6059 0
428 1 Si 58.3206 10.7787 1.61889 0
429 1 Si 63.6598 4.64843 1.60222 0
430 1 Si 64.3515 1.70704 1.64433 0
431 1 Si 61.9831 175.96 1.59178 0
432 1 Si 59.1201 174.709 1.62772 0
433 1 Si 66.8377 5.57034 1.61699 0
434 1 Si 66.1716 8.71258 1.58032 0
435 1 Si 62.3158 11.3467 1.6231 0
436 1 Si 65.3075 11.8577 1.61407 0
437 1 Si 66.9212 0.0108715 1.61208 0
438 1 Si 64.5698 174.281 1.61507 0
439 1 Si 141.381 38.7739 1.64414 0
440 1 Si 144.376 40.3348 1.64601 0
441 1 Si 70.0561 4.63943 1.62894 0
442 1 Si 71.3198 7.58439 1.62021 0
443 1 Si 69.0555 9.79361 1.60797 0
444 1 Si 71.5439 1.61317 1.63317 0
445 1 Si 69.7751 175.047 1.61022 0
446 1 Si 77.2694 3.44975 1.63154 0
447 1 Si 74.7658 0.853485 1.62235 0
448 1 Si 76.8189 7.12857 1.65405 0
449 1 Si 74.038 9.1864 1.63015 0
450 1 Si 156.504 41.2844 1.61686 0
451 1 Si 150.802 43.0697 1.62462 0
452 1 Si 153.981 43.3353 1.63261 0
453 1 Si 80.5552 2.11371 1.63339 0
454 1 Si 80.8562 175.185 1.63317 0
455 1 Si 75.2718 173.587 1.6323 0
456 1 Si 78.4822 173.009 1.61476 0
457 1 Si 164.124 39.0913 1.56348 0
458 1 Si 162.752 41.7672 1.57191 0
459 1 Si 159.61 41.7703 1.61282 0
460 1 Si 84.5679 5.64646 1.62904 0
461 1 Si 82.3778 7.95605 1.60122 0
462 1 Si 84.0661 2.57609 1.61499 0
463 1 Si 79.4343 9.20251 1.6432 0
464 1 Si 87.7188 6.36422 1.62265 0
465 1 Si 84.4401 10.321 1.61151 0
466 1 Si 87.4201 9.48231 1.64572 0
467 1 Si 87.4056 1.23131 1.61906 0
468 1 Si 83.8816 174.061 1.63709 0
469 1 Si 87.1006 174.348 1.61707 0
470 1 Si 90.6555 5.04983 1.63619 0
471 1 Si 90.7696 1.85636 1.60873 0
472 1 Si 96.6671 2.4855 1.61212 0
473 1 Si 99.2117 0.397562 1.6208 0
474 1 Si 96.4537 5.75412 1.63226 0
475 1 Si 98.7163 8.13296 1.62199 0
476 1 Si 93.8822 0.653031 1.63309 0
477 1 Si 97.8623 173.489 1.6162 0
478 1 Si 94.5564 173.689 1.61756 0
479 1 Si 93.3551 6.80068 1.63942 0
480 1 Si 177.423 40.0595 1.64377 0
481 1 Si 171.915 42.4371 1.61799 0
482 1 Si 175.224 42.7195 1.64244 0
483 1 Si 180.827 40.3428 1.64342 0
484 1 Si 17.656 11.8047 1.62804 0
485 1 Si 193.213 40.3062 1.64314 0
486 1 Si 196.324 41.1449 1.58723 0
487 1 Si 199.482 41.5176 1.63703 0
488 1 Si 35.2463 9.53202 1.62613 0
489 1 Si 39.7702 0.557134 1.6088 0
490 1 Si 37.0924 175.143 1.60141 0
491 1 Si 116.297 42.1225 1.62185 0
492 1 Si 119.673 42.3991 1.61393 0
493 1 Si 42.0104 6.42247 1.61953 0
494 1 Si 40.577 9.49105 1.6106 0
495 1 Si 37.6536 11.4336 1.60927 0
496 1 Si 42.7822 175.703 1.64691 0
497 1 Si 42.8126 11.6218 1.62718 0
498 1 Si 45.9577 11.6065 1.6073 0
499 1 Si 135.797 40.3594 1.63331 0
500 1 Si 130.562 42.8976 1.61614 0
501 1 Si 133.744 43.0487 1.63234 0
502 1 Si 138.965 41.0856 1.64433 0
503 1 Si 144.793 43.7142 1.61753 0
504 1 Si 79.7905 12.518 1.62499 0
505 1 Si 72.6723 12.3362 1.61345 0
506 1 Si 77.4761 14.8641 1.61018 0
507 1 Si 74.1992 15.1267 1.61045 0
508 1 Si 83.0093 13.0884 1.62752 0
509 1 Si 165.105 43.7772 1.57661 0
510 1 Si 170.43 45.4266 1.60646 0
511 1 Si 167.378 45.7981 1.63166 0
512 1 Si 92.6868 9.90663 1.62738 0
513 1 Si 89.892 11.3617 1.60654 0
514 1 Si 97.8222 11.2512 1.62297 0
515 1 Si 94.8288 12.1816 1.62428 0
516 1 Si 187.424 41.6805 1.64026 0
517 1 Si 181.757 43.5541 1.65072 0
518 1 Si 185.066 44.0451 1.64817 0
519 1 Si 190.681 42.4191 1.63546 0
520 1 Si 11.6361 14.5889 1.61995 0
521 1 Si 17.7415 14.9011 1.60308 0
522 1 Si 14.7171 16.0728 1.61075 0
523 1 Si 1.51117 42.3392 1.61011 0
524 1 Si 30.1101 14.1809 1.61929 0
525 1 Si 24.4411 14.0669 1.59971 0
526 1 Si 27.2256 15.4881 1.61308 0
527 1 Si 7.48621 40.5528 1.60516 0
528 1 Si 8.69658 35.1696 1.61166 0
529 1 Si 9.51991 38.1548 1.62503 0
530 1 Si 109.584 43.4509 1.60906 0
531 1 Si 115.418 45.5497 1.63162 0
532 1 Si 111.985 45.9812 1.62588 0
533 1 Si 36.0927 14.5335 1.6188 0
534 1 Si 33.0162 16.1085 1.63634 0
535 1 Si 41.4921 14.4655 1.62179 0
536 1 Si 38.87 16.1443 1.62542 0
537 1 Si 46.5976 14.6496 1.61978 0
538 1 Si 44.005 16.2381 1.63184 0
539 1 Si 125.457 44.0029 1.60936 0
540 1 Si 128.384 45.4215 1.63674 0
541 1 Si 49.3887 16.0078 1.61749 0
542 1 Si 60.0538 13.4409 1.60767 0
543 1 Si 55.8377 16.123 1.60859 0
544 1 Si 59.2037 16.4696 1.60234 0
545 1 Si 139.361 44.3551 1.63027 0
546 1 Si 142.238 45.5809 1.63492 0
547 1 Si 69.4601 12.8805 1.6193 0
548 1 Si 66.8445 14.7852 1.61958 0
549 1 Si 154.372 46.4479 1.62538 0
550 1 Si 159.717 44.7685 1.63854 0
551 1 Si 157.389 46.6975 1.63657 0
552 1 Si 162.614 45.6117 1.60603 0
553 1 Si 84.9801 15.586 1.61801 0
554 1 Si 90.409 14.4937 1.61493 0
555 1 Si 88.0831 16.5886 1.61629 0
556 1 Si 176.147 45.9763 1.62691 0
557 1 Si 170.924 48.7606 1.60466 0
558 1 Si 174.173 48.9154 1.61711 0
559 1 Si 179.493 46.0911 1.64782 0
560 1 Si 197.096 44.1716 1.60232 0
561 1 Si 191.674 45.527 1.64249 0
562 1 Si 194.83 46.364 1.616 0
563 1 Si 200.231 44.513 1.5988 0
564 1 Si 20.0892 17.0395 1.60621 0
565 1 Si 15.8611 19.0617 1.61285 0
566 1 Si 18.9362 19.9149 1.59281 0
567 1 Si 23.1026 16.841 1.61209 0
568 1 Si 106.242 43.3397 1.61934 0
569 1 Si 104.163 40.7996 1.60141 0
570 1 Si 122.165 44.7608 1.61964 0
571 1 Si 134.205 46.2759 1.62991 0
572 1 Si 129.081 48.7113 1.6559 0
573 1 Si 132.368 48.9923 1.61445 0
574 1 Si 137.287 46.8487 1.6243 0
575 1 Si 142.545 48.7414 1.62251 0
576 1 Si 163.195 48.6056 1.63463 0
577 1 Si 166.234 48.7222 1.60029 0
578 1 Si 78.08 18.0096 1.61284 0
579 1 Si 72.8926 18.1651 1.62077 0
580 1 Si 75.5637 19.9714 1.6255 0
581 1 Si 83.6145 18.3652 1.60965 0
582 1 Si 80.7723 19.6036 1.63187 0
583 1 Si 186.103 47.144 1.64312 0
584 1 Si 180.543 49.1965 1.64931 0
585 1 Si 183.81 49.5077 1.6451 0
586 1 Si 93.5432 15.1138 1.61412 0
587 1 Si 189.345 47.7878 1.64001 0
588 1 Si 201.519 47.3719 1.60894 0
589 1 Si 2.45903 46.0591 1.64052 0
590 1 Si 204.684 48.2056 1.61665 0
591 1 Si 14.5372 21.9074 1.61747 0
592 1 Si 11.4507 22.0837 1.63383 0
593 1 Si 107.206 48.3074 1.62456 0
594 1 Si 104.602 46.0032 1.61612 0
595 1 Si 110.563 49.0552 1.61706 0
596 1 Si 25.8065 18.2516 1.62198 0
597 1 Si 33.0565 19.6114 1.63734 0
598 1 Si 27.0493 21.0376 1.61629 0
599 1 Si 30.269 21.3833 1.62452 0
600 1 Si 40.4156 18.9561 1.61975 0
601 1 Si 35.7278 21.6709 1.63322 0
602 1 Si 38.9882 21.6715 1.61098 0
603 1 Si 43.6034 19.2623 1.61765 0
604 1 Si 137.532 50.0597 1.60915 0
605 1 Si 140.487 51.155 1.63359 0
606 1 Si 49.252 19.3684 1.65322 0
607 1 Si 46.2279 21.0475 1.64413 0
608 1 Si 55.3162 19.478 1.62233 0
609 1 Si 52.219 20.941 1.63245 0
610 1 Si 60.9573 19.4343 1.60992 0
611 1 Si 58.206 21.3844 1.61026 0
612 1 Si 158.105 49.612 1.60623 0
613 1 Si 66.9373 18.2521 1.6166 0
614 1 Si 64.3672 20.6415 1.62796 0
615 1 Si 160.962 50.6286 1.60836 0
616 1 Si 70.0091 19.7558 1.64296 0
617 1 Si 168.349 50.9671 1.61421 0
618 1 Si 88.7434 19.7988 1.62901 0
619 1 Si 85.7469 20.6716 1.61502 0
620 1 Si 178.543 51.8745 1.62361 0
621 1 Si 175.258 52.073 1.61428 0
622 1 Si 95.334 17.7635 1.61533 0
623 1 Si 196.033 49.3998 1.63231 0
624 1 Si 190.396 50.837 1.63467 0
625 1 Si 193.6 51.6062 1.62606 0
626 1 Si 199.345 49.8202 1.61606 0
627 1 Si 5.74488 48.161 1.61481 0
628 1 Si 9.18498 43.4137 1.64319 0
629 1 Si 8.6816 46.7068 1.61375 0
630 1 Si 19.4381 23.0127 1.64038 0
631 1 Si 16.5632 24.3545 1.61962 0
632 1 Si 105.364 50.8024 1.64063 0
633 1 Si 102.295 50.2918 1.62401 0
634 1 Si 101.117 45.4576 1.62728 0
635 1 Si 99.8599 48.3007 1.63083 0
636 1 Si 111.838 52.3653 1.62261 0
637 1 Si 134.575 51.4085 1.61921 0
638 1 Si 141.836 54.07 1.6181 0
639 1 Si 76.0764 23.1848 1.63115 0
640 1 Si 70.6535 23.0546 1.62207 0
641 1 Si 73.4227 24.8701 1.62294 0
642 1 Si 160.363 53.6727 1.61137 0
643 1 Si 166.415 53.6558 1.61945 0
644 1 Si 163.288 54.8074 1.60306 0
645 1 Si 81.177 22.7598 1.61985 0
646 1 Si 78.8691 24.8852 1.62348 0
647 1 Si 90.983 22.2342 1.62142 0
648 1 Si 94.2598 20.9804 1.62874 0
649 1 Si 184.827 52.5484 1.64129 0
650 1 Si 179.737 54.9142 1.63353 0
651 1 Si 182.857 55.1249 1.6433 0
652 1 Si 10.9663 25.2814 1.61027 0
653 1 Si 187.983 53.0016 1.64467 0
654 1 Si 25.0678 23.5725 1.61157 0
655 1 Si 22.1009 24.7496 1.64566 0
656 1 Si 204.616 51.5523 1.61462 0
657 1 Si 201.338 52.4531 1.61754 0
658 1 Si 2.39588 53.7021 1.61457 0
659 1 Si 5.74693 54.3497 1.61384 0
660 1 Si 7.44223 51.5282 1.61377 0
661 1 Si 30.1107 24.5757 1.61684 0
662 1 Si 27.2543 25.8062 1.61882 0
663 1 Si 109.328 54.6243 1.6236 0
664 1 Si 106.218 53.844 1.62022 0
665 1 Si 36.0133 24.8592 1.61037 0
666 1 Si 31.3353 27.5318 1.61328 0
667 1 Si 34.3962 27.594 1.61356 0
668 1 Si 41.2378 24.0586 1.60898 0
669 1 Si 38.911 26.2003 1.62948 0
670 1 Si 134.154 54.619 1.61681 0
671 1 Si 131.109 55.9613 1.61276 0
672 1 Si 44.5733 23.9644 1.62357 0
673 1 Si 136.706 56.8274 1.6132 0
674 1 Si 140.095 56.8952 1.63839 0
675 1 Si 52.046 24.2772 1.64307 0
676 1 Si 46.1281 26.8082 1.62138 0
677 1 Si 49.4982 26.4593 1.61129 0
678 1 Si 58.0565 24.7945 1.64312 0
679 1 Si 54.9109 25.8725 1.63123 0
680 1 Si 65.3891 24.2661 1.63559 0
681 1 Si 60.5409 27.1786 1.63783 0
682 1 Si 63.9304 27.3957 1.63859 0
683 1 Si 68.5626 25.4319 1.62529 0
684 1 Si 84.2618 23.411 1.63279 0
685 1 Si 173.935 55.1554 1.62778 0
686 1 Si 178.663 58.042 1.61707 0
687 1 Si 175.597 57.9045 1.613 0
688 1 Si 168.095 56.2794 1.61177 0
689 1 Si 171.188 56.8434 1.63331 0
690 1 Si 85.7664 26.16 1.62486 0
691 1 Si 89.2181 25.3435 1.614 0
692 1 Si 194.115 54.7605 1.64192 0
693 1 Si 188.506 56.1154 1.63536 0
694 1 Si 191.549 56.646 1.62522 0
695 1 Si 97.1294 22.5709 1.60676 0
696 1 Si 200.015 55.4732 1.63132 0
697 1 Si 196.911 56.2925 1.62739 0
698 1 Si 16.0634 27.5248 1.65211 0
699 1 Si 12.8555 27.9035 1.61633 0
700 1 Si 109.736 57.8219 1.633 0
701 1 Si 112.702 58.9104 1.62201 0
702 1 Si 21.6387 27.9489 1.62049 0
703 1 Si 18.7481 29.399 1.61416 0
704 1 Si 131.928 59.1925 1.61331 0
705 1 Si 135.176 59.7517 1.63483 0
706 1 Si 73.8386 28.1373 1.62004 0
707 1 Si 70.4957 28.2765 1.62558 0
708 1 Si 79.7094 28.0918 1.63023 0
709 1 Si 76.8389 30.0085 1.65861 0
710 1 Si 83.2147 28.4973 1.59646 0
711 1 Si 162.676 57.8791 1.61175 0
712 1 Si 165.768 58.4666 1.61481 0
713 1 Si 97.5088 25.9118 1.63571 0
714 1 Si 91.1135 27.9488 1.61862 0
715 1 Si 94.5837 27.8514 1.63491 0
716 1 Si 10.7226 30.3136 1.61372 0
717 1 Si 183.521 58.2561 1.62739 0
718 1 Si 186.564 58.6367 1.61653 0
719 1 Si 182.492 61.3415 1.61166 0
720 1 Si 179.413 61.2999 1.61823 0
721 1 Si 27.0627 28.9846 1.63967 0
722 1 Si 24.0834 30.0428 1.61996 0
723 1 Si 1.89764 56.8393 1.60619 0
724 1 Si 201.458 58.3535 1.60952 0
725 1 Si 204.458 58.9048 1.62747 0
726 1 Si 4.17942 58.9993 1.60686 0
727 1 Si 7.04387 57.7169 1.59768 0
728 1 Si 29.8859 30.4498 1.61176 0
729 1 Si 103.33 55.1424 1.6312 0
730 1 Si 100.996 53.0697 1.6173 0
731 1 Si 107.731 60.3609 1.62309 0
732 1 Si 104.431 60.3735 1.60881 0
733 1 Si 102.14 57.9959 1.61292 0
734 1 Si 196.529 59.394 1.6089 0
735 1 Si 200.666 61.4986 1.60423 0
736 1 Si 197.731 62.3012 1.62641 0
737 1 Si 38.7637 29.4011 1.61983 0
738 1 Si 35.746 30.5241 1.6093 0
739 1 Si 126.448 60.4902 1.61061 0
740 1 Si 129.694 61.6668 1.63881 0
741 1 Si 44.2969 29.7639 1.6287 0
742 1 Si 41.2569 31.4044 1.62864 0
743 1 Si 51.0135 29.3127 1.6056 0
744 1 Si 46.4007 32.1124 1.6224 0
745 1 Si 49.597 32.1039 1.61599 0
746 1 Si 141.628 59.9054 1.6229 0
747 1 Si 144.904 60.4965 1.6491 0
748 1 Si 54.1547 28.9713 1.60559 0
749 1 Si 59.4931 30.2034 1.64203 0
750 1 Si 56.4547 31.0362 1.63905 0
751 1 Si 136.585 62.7996 1.61615 0
752 1 Si 139.762 62.6456 1.62593 0
753 1 Si 157.154 59.9706 1.6327 0
754 1 Si 160.29 59.8668 1.63718 0
755 1 Si 65.7394 30.6466 1.64125 0
756 1 Si 69.1485 31.2463 1.6275 0
757 1 Si 151.582 63.0481 1.64335 0
758 1 Si 156.972 63.2084 1.63347 0
759 1 Si 154.548 65.2132 1.62937 0
760 1 Si 171.353 60.0482 1.62353 0
761 1 Si 174.327 60.7974 1.6214 0
762 1 Si 166.538 61.4438 1.63634 0
763 1 Si 169.426 62.5381 1.62526 0
764 1 Si 191.24 59.7165 1.61931 0
765 1 Si 186.651 61.8355 1.6053 0
766 1 Si 189.616 62.3772 1.6359 0
767 1 Si 193.946 60.9438 1.63826 0
768 1 Si 19.7089 32.5449 1.6126 0
769 1 Si 11.4381 33.4064 1.61947 0
770 1 Si 17.6713 35.058 1.61451 0
771 1 Si 14.3011 34.9877 1.60606 0
772 1 Si 112.852 62.0862 1.60403 0
773 1 Si 109.771 62.9269 1.62275 0
774 1 Si 23.0621 33.0612 1.61716 0
775 1 Si 115.947 62.883 1.62719 0
776 1 Si 123.397 61.8696 1.60994 0
777 1 Si 61.0563 32.9481 1.63921 0
778 1 Si 64.1662 33.6805 1.63402 0
779 1 Si 130.791 64.8747 1.60353 0
780 1 Si 136.181 66.1821 1.61354 0
781 1 Si 133.18 67.0983 1.61177 0
782 1 Si 77.0041 33.5515 1.62326 0
783 1 Si 71.1066 34.1093 1.62553 0
784 1 Si 74.1987 35.1526 1.61402 0
785 1 Si 85.6552 30.7151 1.61138 0
786 1 Si 84.3672 33.4924 1.62425 0
787 1 Si 79.0731 36.4319 1.61426 0
788 1 Si 81.9932 35.4321 1.62246 0
789 1 Si 89.0112 30.522 1.60264 0
790 1 Si 145.912 63.5908 1.62879 0
791 1 Si 148.901 64.8966 1.6199 0
792 1 Si 94.7424 30.9964 1.61451 0
793 1 Si 91.7267 32.2066 1.62996 0
794 1 Si 97.0643 33.191 1.61651 0
795 1 Si 161.529 62.6742 1.64616 0
796 1 Si 164.418 63.6339 1.62747 0
797 1 Si 184.331 64.0048 1.62345 0
798 1 Si 31.1081 33.5519 1.62738 0
799 1 Si 25.2806 35.6285 1.61178 0
800 1 Si 28.8708 36.1201 1.62408 0
801 1 Si 34.5568 33.6317 1.63314 0
802 1 Si 202.442 64.1647 1.64708 0
803 1 Si 204.812 62.0697 1.61451 0
804 1 Si 193.592 63.9636 1.64092 0
805 1 Si 196.353 65.1206 1.63227 0
806 1 Si 40.2171 34.7239 1.61927 0
807 1 Si 37.0115 36.1131 1.63849 0
808 1 Si 123.215 65.1771 1.61899 0
809 1 Si 116.776 66.1163 1.62522 0
810 1 Si 120.146 66.5544 1.61099 0
811 1 Si 45.6523 35.1342 1.62042 0
812 1 Si 42.8449 36.6527 1.64389 0
813 1 Si 50.9348 35.0472 1.62739 0
814 1 Si 48.3132 36.802 1.60125 0
815 1 Si 125.849 67.3688 1.61841 0
816 1 Si 129.14 67.6391 1.60682 0
817 1 Si 108.604 65.8779 1.61633 0
818 1 Si 105.149 65.5839 1.61495 0
819 1 Si 102.804 63.2123 1.61077 0
820 1 Si 56.1352 34.1043 1.63901 0
821 1 Si 53.9027 36.2266 1.62047 0
822 1 Si 140.633 65.7662 1.62198 0
823 1 Si 143.781 65.9562 1.63544 0
824 1 Si 58.9797 35.257 1.63944 0
825 1 Si 159.605 65.0213 1.63195 0
826 1 Si 64.8409 37.1247 1.61576 0
827 1 Si 67.8931 38.723 1.61871 0
828 1 Si 70.8044 37.3466 1.61955 0
829 1 Si 175.018 63.8167 1.62665 0
830 1 Si 169.931 65.7272 1.62336 0
831 1 Si 173.052 66.2826 1.61943 0
832 1 Si 178.091 64.2764 1.61616 0
833 1 Si 91.8383 35.3341 1.61995 0
834 1 Si 86.4702 35.7383 1.59801 0
835 1 Si 89.2041 37.1085 1.64241 0
836 1 Si 95.0427 35.8234 1.6081 0
837 1 Si 190.834 65.2055 1.63849 0
838 1 Si 111.015 68.3676 1.65262 0
839 1 Si 106.022 70.4486 1.61896 0
840 1 Si 103.687 68.3461 1.62241 0
841 1 Si 109.094 70.9383 1.62947 0
842 1 Si 114.502 68.7852 1.62088 0
843 1 Si 19.5984 37.8293 1.60985 0
844 1 Si 12.6381 37.7175 1.60419 0
845 1 Si 17.4139 40.1983 1.63124 0
846 1 Si 14.2331 40.3035 1.61792 0
847 1 Si 23.0036 38.0859 1.61111 0
848 1 Si 30.3016 39.2803 1.62688 0
849 1 Si 24.6582 40.8304 1.62767 0
850 1 Si 27.8603 41.4122 1.61684 0
851 1 Si 59.2199 38.3317 1.62577 0
852 1 Si 62.2667 39.3987 1.6261 0
853 1 Si 121.228 69.5659 1.61126 0
854 1 Si 124.406 70.188 1.61266 0
855 1 Si 73.9167 38.423 1.61483 0
856 1 Si 76.1441 41.1737 1.64952 0
857 1 Si 79.3747 40.1123 1.61704 0
858 1 Si 138.668 68.3977 1.59797 0
859 1 Si 84.0985 37.6821 1.60483 0