LAMMPS data file via write_data, version 2 Aug 2023, timestep = 286, units = metal

15624 atoms
2 atom types

8.64846803229082 196.3489810256694 xlo xhi
5.93108708353332 171.39117356635364 ylo yhi
-100 100 zlo zhi

Masses

1 28.085
2 15.999

Atoms # full

9369 1 2 0 11.109928598036424 7.978902197573863 -2.180594778648218 0 0 0
6657 1 1 0 11.919224043232393 6.5974767875375875 -1.6398366997965663 0 0 0
6656 1 1 0 9.974832257167467 9.097634036518173 -1.6407532600719887 0 0 0
9370 1 2 0 10.583105559179396 10.575305194921262 -2.1315308707586613 0 0 0
9377 1 2 0 13.182945219544587 9.951037991792425 -2.1957750075136495 0 0 0
6660 1 1 0 12.084868875825364 11.070075290581533 -1.6453284704142335 0 0 0
13166 1 2 0 9.888642865617266 8.937861603089702 -1.7784014515588975e-08 0 0 0
13170 1 2 0 12.127946938398479 11.143564531725193 -4.254591930124257e-07 0 0 0
13167 1 2 0 12.079922661652995 6.7582187135322505 5.972133001140034e-09 0 0 0
9372 1 2 0 13.403968026412224 5.982869504143044 -2.1962592982694282 0 1 0
9383 1 2 0 16.027049960167368 6.056419000156957 -1.9111739957135527 0 0 0
6664 1 1 0 16.53514434033723 7.585161633170454 -1.61536159887725 0 0 0
9384 1 2 0 18.020758561999404 7.613163419233251 -2.317297862539165 0 0 0
6838 1 1 0 19.523110291987646 7.6885528433941985 -1.6509851607090356 0 0 0
6663 1 1 0 14.73438570498666 9.975080658755635 -1.647294756200987 0 0 0
9381 1 2 0 15.501756033039195 8.672210228443916 -2.3091069854087314 0 0 0
6837 1 1 0 19.440027194708748 10.513267720219163 -1.6370139212666188 0 0 0
9426 1 2 0 17.852031775165575 10.54206306277013 -2.106655330962347 0 0 0
9382 1 2 0 15.383287673426885 11.421241655981719 -2.1614696486292058 0 0 0
13174 1 2 0 16.66403435509532 7.894178913233097 -4.711371847358073e-09 0 0 0
9642 1 2 0 20.18248184295641 9.132648733386246 -2.169001075432872 0 0 0
9644 1 2 0 20.38994820938668 6.429310645683484 -2.244463562725144 0 0 0
9655 1 2 0 23.03105229264588 6.670586489266899 -2.242981670572228 0 0 0
6845 1 1 0 24.057262177085114 7.8124961998736975 -1.6491450644724914 0 0 0
9653 1 2 0 23.693397991643877 9.313272611479633 -2.2362100227337662 0 0 0
6844 1 1 0 23.90305195772818 10.835523032710844 -1.6454834690741538 0 0 0
13354 1 2 0 23.92606773686878 10.806620709877008 -4.312239083078015e-07 0 0 0
9656 1 2 0 25.528711366716827 7.465548410701335 -2.290963846709231 0 0 0
6853 1 1 0 27.007340129353075 7.210934281049939 -1.6404294017671621 0 0 0
9666 1 2 0 28.060452708105387 8.3028817077127 -2.25805822833735 0 0 0
6852 1 1 0 29.513524171174495 8.779449562011774 -1.6484128973495287 0 0 0
9664 1 2 0 29.63952885048013 10.316821381457864 -2.2229116674746576 0 0 0
9667 1 2 0 30.723529096921098 7.810147976515657 -2.226246845597502 0 0 0
13362 1 2 0 29.530981440270676 8.75965332971081 9.538319827935937e-07 0 0 0
6861 1 1 0 32.243443334587056 7.471260619331132 -1.6472159287121062 0 0 0
9682 1 2 0 32.846989138177904 6.0345035614428655 -2.1872920357547896 0 0 0
6855 1 1 0 34.17772102131443 9.802264762346805 -1.6488598599987914 0 0 0
9672 1 2 0 33.26427454589935 8.597660966775951 -2.279782292128258 0 0 0
9670 1 2 0 35.72106471588833 9.65929608680719 -2.196182314997933 0 0 0
9671 1 2 0 33.57264003383794 11.212687448900008 -2.269755989865329 0 0 0
13371 1 2 0 32.2205587641774 7.497088720824399 -5.3210461734270504e-08 0 0 0
9674 1 2 0 37.203747044421526 7.439423796918829 -2.2816463237911893 0 0 0
9691 1 2 0 40.56420290837161 6.949030127896784 -2.2144973566690207 0 0 0
6856 1 1 0 37.110157974910884 8.96225225281066 -1.6476140747744819 0 0 0
9673 1 2 0 38.339183003581404 9.892099027336775 -2.247830575325494 0 0 0
6858 1 1 0 39.063171801232194 11.251190005830743 -1.6462436880837787 0 0 0
9678 1 2 0 40.62267481143588 11.301181517936186 -2.171594191596488 0 0 0
13372 1 2 0 37.20927275484473 6.015812753702579 -1.2587259857141263e-06 0 0 0
13377 1 2 0 41.72472381579117 7.960719156201294 -1.0342349840112046e-06 0 0 0
13366 1 2 0 37.15320219588895 8.908279063521617 1.589401962504035e-07 0 0 0
9692 1 2 0 43.100192410862995 6.5536634799060876 -1.8916620764810954 0 0 0
6867 1 1 0 41.922773712716435 7.687577928709312 -1.6116849209802575 0 0 0
6881 1 1 0 44.726491688267224 6.710447983936307 -1.603238741914264 0 0 0
9689 1 2 0 42.21386005310003 9.159464282966812 -2.304923358620296 0 0 0
9705 1 2 0 44.96710307302579 8.271997151479692 -2.199849518756685 0 0 0
6874 1 1 0 46.118190400447524 9.35758643978321 -1.635759769073496 0 0 0
6866 1 1 0 42.05400730181326 10.675400217556168 -1.6465284320587845 0 0 0
9702 1 2 0 46.40113938756894 10.898899758586948 -2.225233651531834 0 0 0
13376 1 2 0 42.144190672956206 10.642649814806477 6.569266882668519e-07 0 0 0
13384 1 2 0 45.91305570738822 9.536546054401223 -9.375628576070339e-07 0 0 0
9700 1 2 0 47.39418322605458 8.460455105271842 -2.1865622109842833 0 0 0
9701 1 2 0 49.78806090256927 7.541665372095406 -2.3396190118417657 0 0 0
6879 1 1 0 50.76834040168738 6.436551554034056 -1.6269470885591422 0 0 0
9711 1 2 0 52.34157058945971 6.824294679056676 -1.9853329718832256 0 0 0
6872 1 1 0 48.89954821776056 8.730051295169071 -1.6468969108785052 0 0 0
9697 1 2 0 49.38916820193563 10.232853649540505 -2.1951332571889983 0 0 0
9699 1 2 0 51.940366186011744 9.501937120598312 -2.29877409032495 0 0 0
6871 1 1 0 50.899858048683846 10.604699525767261 -1.6429888447437975 0 0 0
13389 1 2 0 50.52592429470132 6.410310788848408 -1.0048561206048653e-06 0 0 0
6878 1 1 0 52.88232362187925 8.354546987117931 -1.6227620034964259 0 0 0
13388 1 2 0 52.85609095246523 8.600041806645148 -1.4732967157177884e-06 0 0 0
9712 1 2 0 54.39314849644996 8.534134580567537 -2.255040153306725 0 0 0
6888 1 1 0 55.5275879724444 7.495251390629319 -1.644776808219641 0 0 0
9726 1 2 0 55.163001281867686 6.012713616472676 -2.2243809191496533 0 0 0
6886 1 1 0 57.58190207852414 9.403535990377593 -1.6390779389128383 0 0 0
9723 1 2 0 57.03869584293411 7.916493245344631 -2.1337306817390704 0 0 0
9722 1 2 0 56.54156282422742 10.507542804597207 -2.2714221010240316 0 0 0
13398 1 2 0 55.46287398123968 7.5070575615300665 -4.214452489430718e-07 0 0 0
13396 1 2 0 57.643372610835314 9.55766315933083 -9.247085713982293e-07 0 0 0
9732 1 2 0 59.415823116922766 6.307814962810624 -2.106925321291341 0 0 0
6892 1 1 0 60.978504281162095 6.642083265684231 -1.6434267054503537 0 0 0
6889 1 1 0 60.57360782337208 9.449335539259247 -1.6455140205245462 0 0 0
9724 1 2 0 59.06289397203299 9.543389343917706 -2.30619460270235 0 0 0
9728 1 2 0 61.37766947515519 8.135726832404147 -2.245978445845088 0 0 0
9727 1 2 0 61.31565173265061 10.82218892696597 -2.165352196826998 0 0 0
9741 1 2 0 64.25181235026317 6.610792110667714 -2.2381391617607966 0 0 0
6897 1 1 0 65.4420871415232 7.598512409373183 -1.6481503568938891 0 0 0
9742 1 2 0 66.78004298831294 6.755567766067969 -2.2044315477460548 0 0 0
9752 1 2 0 69.32604694459323 6.95522315317266 -2.1157348773067906 0 0 0
9738 1 2 0 65.10176805063313 9.147820980730287 -2.2202503624831005 0 0 0
6895 1 1 0 65.01884530032518 10.705283824705004 -1.5605637769688079 0 0 0
9746 1 2 0 68.53044655878475 9.724299665264919 -2.3295262420986926 0 0 0
9739 1 2 0 66.52128964890704 11.36693542535497 -1.6815020778172447 0 0 0
6900 1 1 0 68.13939793012125 11.163696432663324 -1.5736568045531292 0 0 0
6904 1 1 0 69.33260311649276 8.512150934159408 -1.5147124957863853 0 0 0
13410 1 2 0 68.66671999224397 11.145245226287706 -1.2545764152155003e-07 0 0 0
13405 1 2 0 64.49279170320979 10.4940079244155 1.361096937230301e-07 0 0 0
9759 1 2 0 72.40878542510393 6.867346755662347 -2.2430938595337166 0 0 0
9753 1 2 0 70.89137260030168 9.000139668520786 -1.4828428167162522 0 0 0
6908 1 1 0 72.4180626779077 8.378334137259008 -1.524469312734661 0 0 0
9756 1 2 0 73.21297837965773 9.642919392728736 -2.2738868136335775 0 0 0
6906 1 1 0 73.58755725685452 11.154155752676177 -1.6500185350975918 0 0 0
13418 1 2 0 73.05510243421695 8.190238752022962 -1.0662421788993859e-06 0 0 0
13416 1 2 0 73.46085529432571 11.109683233047909 -4.3267900390003907e-07 0 0 0
6914 1 1 0 77.36906669794658 5.972025375320747 -1.6495214298604677 0 0 0
9767 1 2 0 77.23369143283996 7.5591209797718 -2.1771861632611436 0 0 0
9761 1 2 0 77.50832609951429 10.404326208208362 -2.2208399560732417 0 0 0
6913 1 1 0 78.0469301269883 8.92967756221879 -1.6476351649733827 0 0 0
9768 1 2 0 79.59997845195399 8.724238283230028 -2.202805072954321 0 0 0
13424 1 2 0 77.34858523945994 5.971578247103603 -9.467839152212884e-07 0 0 0
9757 1 2 0 75.11239489131486 11.413388773893633 -2.1942904434465387 0 0 0
6920 1 1 0 82.5293632816637 6.792928761673406 -1.6462815098192154 0 0 0
9780 1 2 0 83.87691197797294 6.053136193035858 -2.2456246130036117 0 0 0
6924 1 1 0 85.42095210348961 6.0689951356774765 -1.6489083514418221 0 0 0
6917 1 1 0 81.04822290732974 9.296152270710564 -1.6456262585733028 0 0 0
9775 1 2 0 82.32947006993035 8.364668777934718 -2.15476445206609 0 0 0
9782 1 2 0 85.21057088891494 9.987010543531252 -2.2386627778191506 0 0 0
9774 1 2 0 81.24592627756638 10.815518214303362 -2.2467991427093192 0 0 0
9779 1 2 0 81.23434462139632 6.000800451394935 -2.2615737571293706 0 1 0
13430 1 2 0 82.56231773836794 6.734448078507193 -2.8290783172321357e-07 0 0 0
13434 1 2 0 85.40716119878688 6.052922553493309 -5.672989192051524e-07 0 0 0
9783 1 2 0 86.11838670365509 7.43760633133699 -2.2535388437297392 0 0 0
9792 1 2 0 89.28115419595828 7.186741538578053 -2.213745029624995 0 0 0
6922 1 1 0 86.33922690935306 8.944691429358608 -1.6453088653066517 0 0 0
9784 1 2 0 87.81869525403059 9.464355947425883 -2.1727099906844463 0 0 0
6928 1 1 0 89.19567910028749 8.73122997639468 -1.6444604850926472 0 0 0
9791 1 2 0 90.41304888121482 9.6372137749671 -2.273456088569879 0 0 0
13438 1 2 0 89.24900932579118 8.705581349796931 -1.3850697784549768e-07 0 0 0
6940 1 1 0 94.25846128911691 7.863284857806842 -1.6474097976922208 0 0 0
9811 1 2 0 94.20567500845047 6.2741629978447975 -2.1494333019039686 0 0 0
6931 1 1 0 91.93041328979781 9.706028884359283 -1.644251529439763 0 0 0
9798 1 2 0 92.81785816006752 8.445590843381991 -2.2086123384921748 0 0 0
9812 1 2 0 95.46160169978867 8.82133744348162 -2.2795292408036643 0 0 0
9794 1 2 0 92.62005806945753 11.065641204473351 -2.2152636271858963 0 0 0
13441 1 2 0 91.90615898440551 9.708556871968987 -4.623106332292348e-07 0 0 0
6946 1 1 0 96.9420639566499 9.197570874466885 -1.6173405533280623 0 0 0
13450 1 2 0 94.36362478405468 7.91313857503883 -1.152666976555463e-06 0 0 0
6948 1 1 0 99.35275950816931 7.421793953425707 -1.621810021496673 0 0 0
9820 1 2 0 97.81547425832025 7.856940368401269 -1.9877466384364209 0 0 0
6672 1 1 0 101.96190854215341 8.740288072107754 -1.6428704578691398 0 0 0
9397 1 2 0 100.38510146944175 8.61164460884722 -2.180133097214894 0 0 0
9819 1 2 0 97.77872046625268 10.487684445200179 -2.2356406641550803 0 0 0
9376 1 2 0 12.502385693618438 12.540346527996618 -2.2624747679520243 0 0 0
9378 1 2 0 10.69246329361104 14.412564960881634 -2.1976957182692702 0 0 0
6662 1 1 0 9.3379057577892 15.171757671603617 -1.6443572117214078 0 0 0
6661 1 1 0 12.199227645909037 14.046680016178485 -1.6481396099235808 0 0 0
9379 1 2 0 13.30401929655178 15.109892843100083 -2.2628565508746115 0 0 0
9380 1 2 0 9.50653188630867 16.757140216299092 -2.1987407386019413 0 0 0
13172 1 2 0 9.214041706902602 15.212416784281 -4.704178598429137e-07 0 0 0
13171 1 2 0 12.227744245489376 14.071805985494017 2.704867622565791e-08 0 0 0
6690 1 1 0 14.56928303462384 15.983881674391895 -1.643011213315168 0 0 0
6691 1 1 0 16.89722360996367 11.822075689481188 -1.6365886207742721 0 0 0
6692 1 1 0 17.34038872109333 14.75502030062699 -1.6522978469809806 0 0 0
9425 1 2 0 17.448580698026504 13.229830610051673 -2.2811107274855775 0 0 0
9423 1 2 0 15.955673505238096 15.381170904787291 -2.2760044984700976 0 0 0
6843 1 1 0 19.518796928437883 16.844167725561952 -1.6490873267975252 0 0 0
9427 1 2 0 18.62208819807062 15.60011974622213 -2.2541411254434234 0 0 0
13353 1 2 0 19.448447206703474 16.829584068128362 -2.3101033390443186e-07 0 0 0
13201 1 2 0 16.906367481619434 11.97491827751911 7.639990108209365e-08 0 0 0
9649 1 2 0 22.661220603985864 11.70134479760266 -2.2648763242420826 0 0 0
6841 1 1 0 21.439964390003432 12.595600844956236 -1.6466300093520985 0 0 0
9643 1 2 0 20.07300803052646 11.903424002945039 -2.250236456269663 0 0 0
9648 1 2 0 21.487711633942997 14.108517518648375 -2.268993627690175 0 0 0
6842 1 1 0 22.10268611295212 15.50727342689207 -1.6447432901941683 0 0 0
9650 1 2 0 21.08921279648006 16.702939130251483 -2.161071807358707 0 0 0
9651 1 2 0 23.599503534874746 15.760099027295245 -2.2643765367690705 0 0 0
6850 1 1 0 25.13266204554308 15.68196271049257 -1.6503376213879757 0 0 0
9654 1 2 0 25.248079601042026 11.59107906054902 -2.2222928748249315 0 0 0
9662 1 2 0 27.684038539187615 12.318153268921417 -2.252670564782474 0 0 0
6851 1 1 0 29.111727743704684 11.766602131276366 -1.6496230848108002 0 0 0
9665 1 2 0 30.214852828269354 12.780125761129716 -2.304220756141187 0 0 0
6849 1 1 0 26.23073428951205 12.789555061015118 -1.6482227076150053 0 0 0
9661 1 2 0 25.86877855219575 14.30902650115048 -2.2262663954611996 0 0 0
9688 1 2 0 30.50755044432044 15.383678530326407 -2.2233101130211903 0 0 0
13359 1 2 0 26.19605295756864 12.845308446322786 -4.919911705432278e-07 0 0 0
6857 1 1 0 33.76941862128521 12.718103240386737 -1.6377548806720705 0 0 0
9676 1 2 0 32.638412609150656 13.773394952791117 -2.2091644024130557 0 0 0
6865 1 1 0 31.103324919085964 13.970555679278496 -1.6451441347332059 0 0 0
6859 1 1 0 35.64325310551233 14.900320258709877 -1.6409339232842637 0 0 0
9675 1 2 0 35.20848639493819 13.369786782799553 -2.1171171816846788 0 0 0
6952 1 1 0 30.90549802501206 16.871227028249763 -1.6468472937631335 0 0 0
9680 1 2 0 34.722536133999796 16.09271249062177 -2.2990664430879617 0 0 0
13375 1 2 0 31.047730419840445 13.939694470762143 -3.6285744649433156e-07 0 0 0
13462 1 2 0 30.929231209054652 16.90446000913999 -4.43357850041327e-07 0 0 0
13367 1 2 0 33.66464449516684 12.614377038285568 -4.6662013465366103e-07 0 0 0
13369 1 2 0 35.57193826840323 15.03462267800101 -1.1327687115033703e-07 0 0 0
9677 1 2 0 38.35648859836896 12.617564752949354 -2.264956530831951 0 0 0
9679 1 2 0 37.17665953332153 15.074881359629956 -2.210836297928845 0 0 0
6860 1 1 0 38.42408565459979 14.146742895292006 -1.6436487650544191 0 0 0
9681 1 2 0 39.77238829301861 14.961036585066136 -2.1379677093587524 0 0 0
6958 1 1 0 40.09847348750006 16.514703680330545 -1.6448862524891756 0 0 0
13468 1 2 0 40.04899323748693 16.65045101983435 8.941647503421946e-08 0 0 0
9837 1 2 0 41.640859934187084 16.775360025199017 -2.2067912446263005 0 0 0
9690 1 2 0 43.262337743121975 11.639815544041424 -2.2460035938680605 0 0 0
6873 1 1 0 46.74225920601631 12.443869950464032 -1.6399790853631497 0 0 0
6880 1 1 0 43.83140597603792 13.083502811452572 -1.644037911274024 0 0 0
9714 1 2 0 42.93264513533783 14.343851168265246 -2.239963855226228 0 0 0
9704 1 2 0 45.40562999829033 13.317729013494084 -2.1078575938043778 0 0 0
6959 1 1 0 42.94154913413977 15.895522966859456 -1.6474060766087488 0 0 0
9839 1 2 0 44.35610016824333 16.59960290486091 -2.1407737665828876 0 0 0
13390 1 2 0 43.737720772043645 13.030828052833803 -4.503866619610512e-07 0 0 0
9698 1 2 0 51.46720081959869 12.046312870271244 -2.210118225003869 0 0 0
9703 1 2 0 48.07913688516624 13.306617379967742 -2.2063886979609335 0 0 0
9710 1 2 0 48.01793326841883 16.023764262188656 -2.144316280271274 0 0 0
6877 1 1 0 48.87654309018407 14.685549584976561 -1.6465401592339433 0 0 0
9708 1 2 0 50.44810242530834 14.903097264338621 -2.224468792837283 0 0 0
6876 1 1 0 51.908835709239725 15.323432744799435 -1.5266125272926858 0 0 0
13386 1 2 0 51.56654543111563 15.896113508885788 -2.793738638119594e-07 0 0 0
6875 1 1 0 52.93988780895147 12.446432221251072 -1.5324948800630434 0 0 0
9706 1 2 0 52.981890340246146 14.064949020664796 -1.4961905366324482 0 0 0
9707 1 2 0 54.25543127432579 11.867099530032995 -2.344849386379028 0 0 0
6887 1 1 0 55.76166066514717 11.815836928543824 -1.654452397673932 0 0 0
9725 1 2 0 56.56614908093191 13.1585738621141 -2.1851891264155663 0 0 0
6891 1 1 0 58.05518150769662 13.623575385918025 -1.64258910075803 0 0 0
9709 1 2 0 52.94096027966765 16.37641211629159 -2.3008772347572424 0 0 0
6964 1 1 0 54.38568410094908 16.936181474357834 -1.6573907103770225 0 0 0
6963 1 1 0 57.504389684926885 16.537340283971922 -1.6438992617093227 0 0 0
9845 1 2 0 55.91591903059508 16.456889152828523 -2.1808268193550915 0 0 0
13474 1 2 0 54.3404490518252 16.74759387072661 -2.308429793133975e-07 0 0 0
9731 1 2 0 58.269483999592204 15.165052916278572 -2.1552783191674347 0 0 0
6890 1 1 0 60.71202375878177 12.28186777960848 -1.6414796162766043 0 0 0
9730 1 2 0 61.81616742207254 13.375274884699213 -2.1444436887634417 0 0 0
9729 1 2 0 59.238252352829825 12.659290690028081 -2.2886052360907967 0 0 0
6896 1 1 0 63.39646039835774 13.360032928993483 -1.6445937720663286 0 0 0
9740 1 2 0 63.78479555688211 14.861275771269261 -2.234891411706413 0 0 0
9737 1 2 0 64.09056270141821 11.937552408577059 -2.2322726614064905 0 0 0
9745 1 2 0 68.79963437368858 12.497524523879619 -2.2968990125160245 0 0 0
6901 1 1 0 69.23121392101227 13.966273584059092 -1.650925455662759 0 0 0
9747 1 2 0 68.29221233180955 15.18720801913869 -2.2537668767166705 0 0 0
6902 1 1 0 64.32844713367228 16.317604830001997 -1.6456099373746182 0 0 0
9749 1 2 0 65.85575870202383 16.226893732088016 -2.234082604799242 0 0 0
6903 1 1 0 67.36456689890164 16.412439641082383 -1.6464647508188275 0 0 0
13413 1 2 0 67.43953995392688 16.40919147834449 -8.976308905404156e-08 0 0 0
9755 1 2 0 72.73345623363141 12.475014558322984 -2.2207448031154557 0 0 0
9748 1 2 0 70.7564952124683 14.271693259959708 -2.18937068886371 0 0 0
6907 1 1 0 72.28407400014545 13.973891352179908 -1.6456222709553088 0 0 0
9758 1 2 0 73.1605932519707 15.283198579707667 -2.2099434710637773 0 0 0
6911 1 1 0 73.36020868580286 16.841268933975815 -1.6483456778289258 0 0 0
13417 1 2 0 72.37602935604674 13.940360841699572 -5.727608387305651e-07 0 0 0
6909 1 1 0 76.62807250685886 11.70802081553878 -1.6439010716088112 0 0 0
6910 1 1 0 77.59255734053895 14.689328097591819 -1.6470684303177987 0 0 0
9760 1 2 0 76.96829183266013 13.243291050994667 -2.210674896567403 0 0 0
9763 1 2 0 79.11441930721274 14.67417656017796 -2.255185414315976 0 0 0
9762 1 2 0 76.99591715990421 16.14422916907981 -2.206123349590419 0 0 0
13420 1 2 0 77.49443626618223 14.681033155987015 1.4255398922493066e-07 0 0 0
6918 1 1 0 82.08652815172424 12.101124831107354 -1.6495870255774199 0 0 0
9777 1 2 0 83.61291987691496 12.100081008965988 -2.259249047592776 0 0 0
6923 1 1 0 85.01690308199478 11.519674684855335 -1.647461391235074 0 0 0
6919 1 1 0 80.62741683453527 14.738249628438478 -1.6476096790086923 0 0 0
9776 1 2 0 81.41093512010302 13.446737873983345 -2.281190610817856 0 0 0
9778 1 2 0 81.33242325855714 16.081394276081532 -2.254710262006828 0 0 0
6968 1 1 0 85.15624783742714 16.53727245184136 -1.6486777663169678 0 0 0
9799 1 2 0 85.66080824794061 15.039858347185623 -2.188240412376525 0 0 0
13429 1 2 0 80.63702014726915 14.731542637169131 -1.8890808373438227e-07 0 0 0
13433 1 2 0 84.97378758123767 11.525385729577797 -3.6488487608858533e-07 0 0 0
9785 1 2 0 86.25262940229715 12.455183900009931 -2.1938607064823232 0 0 0
6932 1 1 0 86.7788261199652 13.92031028774248 -1.6465031550557856 0 0 0
9796 1 2 0 88.3252263145981 13.955366294801097 -2.264508467717089 0 0 0
6930 1 1 0 89.84416265140598 14.166046457326143 -1.6419260413381582 0 0 0
9797 1 2 0 90.24502546670129 15.677207757122043 -2.1899787981408068 0 0 0
9793 1 2 0 91.06936607600692 13.184463343097718 -2.213540729035483 0 0 0
13440 1 2 0 89.7795263749412 14.001947686249514 -4.2802831216544297e-07 0 0 0
6939 1 1 0 91.57941710777477 16.470060395508273 -1.6420298957727963 0 0 0
6929 1 1 0 92.52513640234028 12.603813987500038 -1.6481489710249424 0 0 0
9795 1 2 0 93.96433183546992 13.159412133381132 -2.2720980592331803 0 0 0
9807 1 2 0 96.80595680898091 12.85674650607673 -2.277609030187142 0 0 0
6937 1 1 0 95.44439768732003 13.485542040576663 -1.5937308598414344 0 0 0
9806 1 2 0 95.64412400787145 15.09648562846143 -1.8722557035323923 0 0 0
9808 1 2 0 92.97523310353536 15.807536377731907 -2.2385108247509446 0 0 0
6938 1 1 0 94.46461113429712 16.20765932744853 -1.6130018927411398 0 0 0
13447 1 2 0 95.40395559437677 13.035028114393402 -6.974688439094311e-07 0 0 0
13439 1 2 0 92.52619484049744 12.772074326417984 -1.2216685287915587e-06 0 0 0
6945 1 1 0 98.09983305353327 12.01613647078834 -1.6537797795605451 0 0 0
9394 1 2 0 99.5510048496444 12.614442196993023 -2.2221461006880916 0 0 0
9386 1 2 0 102.3252592457044 12.548393326796857 -2.195585061418683 0 0 0
6670 1 1 0 100.96137111547883 13.322830291415297 -1.6467230412382632 0 0 0
9393 1 2 0 101.16165330228941 14.862218416581598 -2.213864377478535 0 0 0
6671 1 1 0 101.34227393293098 16.41535989545448 -1.6565391064027741 0 0 0
13180 1 2 0 100.90071211906752 13.271388338985876 -1.90181512275587e-07 0 0 0
13455 1 2 0 98.15081431982178 12.049958749392527 4.154922897189753e-07 0 0 0
13181 1 2 0 101.33782468476076 16.447004732618833 -9.192360923982483e-07 0 0 0
6709 1 1 0 10.507178680086648 17.987486828094056 -1.647298524669466 0 0 0
9451 1 2 0 10.13324383191927 19.498915329632183 -2.201904833049279 0 0 0
9452 1 2 0 12.079610261505726 17.923076197999553 -2.191676896192614 0 0 0
6712 1 1 0 13.461056356491 18.677752024579206 -1.6361091483793428 0 0 0
6711 1 1 0 9.073053034333723 20.6263715663522 -1.6469967898101892 0 0 0
9455 1 2 0 9.469434317096269 22.109414248386848 -2.2726584709636977 0 0 0
9456 1 2 0 13.924079369631242 20.151690839854258 -2.2578719874610034 0 0 0
13222 1 2 0 13.343854001788072 18.86314655511276 -2.562187918793447e-07 0 0 0
13221 1 2 0 9.05299467968248 20.72636605437664 -7.530033538345031e-07 0 0 0
9424 1 2 0 14.607476929780132 17.575234711973206 -2.1019754169754914 0 0 0
6977 1 1 0 19.292162848935803 19.75436884732325 -1.6422702378295466 0 0 0
9652 1 2 0 18.941343650060105 18.266680288200174 -2.2612287975853946 0 0 0
6771 1 1 0 14.489762353100396 21.600967535319942 -1.6496750934717992 0 0 0
9545 1 2 0 15.964916435757425 22.077825878382804 -2.246180642451162 0 0 0
6978 1 1 0 17.49721258492965 22.19566159601964 -1.6494012185739282 0 0 0
9865 1 2 0 18.221081222762088 20.83652935076486 -2.2572045097255264 0 0 0
13281 1 2 0 14.542133907810403 21.533536214231457 -4.7076120020336846e-07 0 0 0
13487 1 2 0 19.18855646746721 19.726339430506993 -6.150968542650285e-07 0 0 0
6981 1 1 0 21.597109671672968 21.56004503056239 -1.6425210677073825 0 0 0
9866 1 2 0 20.815801435852002 20.18439774380233 -2.1242805193305436 0 0 0
9871 1 2 0 23.085315820745727 21.478659560210065 -2.3085774530751237 0 0 0
6982 1 1 0 24.56270620901444 21.19686757876878 -1.650403071842874 0 0 0
9869 1 2 0 24.968886357406458 19.691305657095064 -2.2084100877404302 0 0 0
13492 1 2 0 24.577116743730873 21.202202003494868 -2.9096863914796464e-07 0 0 0
9663 1 2 0 25.856007789625586 17.05198438799746 -2.2366756518049282 0 0 0
9828 1 2 0 29.748220401480737 17.840431034102707 -2.2683555025501887 0 0 0
6980 1 1 0 26.06296472724419 18.58542761245813 -1.646803261819625 0 0 0
9870 1 2 0 27.485934286410952 19.14874728148106 -2.241518732491727 0 0 0
6983 1 1 0 29.008856795634323 19.166965390166933 -1.6488432130153121 0 0 0
9874 1 2 0 29.7291995970682 20.49466118301942 -2.285439836058804 0 0 0
7017 1 1 0 30.67401472763141 21.67146537206507 -1.6462420473333101 0 0 0
13490 1 2 0 26.034997558888566 18.532968184449654 -2.9565193315084847e-07 0 0 0
9873 1 2 0 25.505683944697594 22.4311127193842 -2.2144067860873395 0 0 0
13527 1 2 0 30.615446398197538 21.670552527986704 -1.5175470189636632e-07 0 0 0
9827 1 2 0 32.36063030687498 17.33622504532186 -2.2485815028810405 0 0 0
6953 1 1 0 33.88780627328437 17.36293487888205 -1.648679900213834 0 0 0
9829 1 2 0 34.51439603630977 18.764625260138036 -2.223773645575318 0 0 0
6984 1 1 0 35.53866658248098 19.914542564499428 -1.6490784938293466 0 0 0
9922 1 2 0 32.21797304115425 21.368326619803618 -2.1604741292571688 0 0 0
7018 1 1 0 33.59286787969405 22.14582846457892 -1.6449505484963758 0 0 0
9876 1 2 0 34.94797335826075 21.367600582729803 -2.2087893442095643 0 0 0
13494 1 2 0 35.60270573310077 19.934296428674035 -3.3370904896978256e-07 0 0 0
13528 1 2 0 33.649719852090904 22.200769509099093 -2.0965495427779284e-07 0 0 0
13463 1 2 0 33.906837962189606 17.328041366009792 -1.8806814811312778e-07 0 0 0
9875 1 2 0 37.027363275277494 19.55648894918368 -2.2769686398944384 0 0 0
6985 1 1 0 38.465473140483105 19.03469932027779 -1.640943567439502 0 0 0
9838 1 2 0 38.97295965335047 17.575469933088947 -2.254959944393709 0 0 0
9877 1 2 0 39.60893444005454 20.096400207990214 -2.140511549061794 0 0 0
7019 1 1 0 40.3379407343118 21.477072418999573 -1.640211502845034 0 0 0
9925 1 2 0 41.87880194954961 21.30091246378198 -2.248462999502213 0 0 0
9883 1 2 0 43.74011686069309 19.142947857185487 -2.209790093389872 0 0 0
6989 1 1 0 44.902732555542755 18.08498728691555 -1.6439978595275293 0 0 0
9882 1 2 0 46.461510979524114 18.245162381187356 -2.228306880226844 0 0 0
7020 1 1 0 43.28199148015805 20.63818758923602 -1.6441583699441202 0 0 0
9927 1 2 0 44.51940027886011 21.56236178742232 -2.2014346092278365 0 0 0
13530 1 2 0 43.15288134665704 20.624808454692932 -3.166405158383609e-07 0 0 0
13499 1 2 0 44.96868377036126 18.229040651653808 -3.789465991179523e-07 0 0 0
6990 1 1 0 47.89844604443087 17.604234385143776 -1.6473284987442467 0 0 0
9884 1 2 0 49.25212763664925 18.425396265208054 -2.208103438005855 0 0 0
9932 1 2 0 48.75010443126207 20.970860366386685 -2.212065278540278 0 0 0
7023 1 1 0 49.850956959336294 19.875167375096456 -1.646863879023189 0 0 0
9931 1 2 0 51.32263209227674 20.389734102423922 -2.26402013042016 0 0 0
7024 1 1 0 52.4391482410739 21.454296667444552 -1.6294441955052665 0 0 0
13500 1 2 0 47.89160979794149 17.682279622670887 -5.830372199969532e-07 0 0 0
13534 1 2 0 52.16720830783492 21.41945812601403 -1.536389902642333e-07 0 0 0
7060 1 1 0 48.33479906016019 22.4454045508783 -1.6467815591393304 0 0 0
9847 1 2 0 54.24710120815184 18.461825315497506 -2.274397106572651 0 0 0
7022 1 1 0 54.93787271350915 19.790692576583567 -1.629280930852594 0 0 0
9929 1 2 0 53.981391835531454 21.04644514228965 -2.0738862888899234 0 0 0
9930 1 2 0 56.4470809179634 19.975758086034674 -2.2863209132606417 0 0 0
7027 1 1 0 57.6583402847207 20.82096045904245 -1.5492171857151242 0 0 0
9937 1 2 0 57.917765968448734 22.221338119447292 -2.3812705581898057 0 0 0
9846 1 2 0 58.57729398972967 17.66346123489451 -2.2707203788638073 0 0 0
6965 1 1 0 59.76379008132213 18.586942331676262 -1.5365847193065867 0 0 0
9849 1 2 0 59.131474100498075 20.10451889331473 -1.5623688385385688 0 0 0
9848 1 2 0 61.25728826583079 18.770741570430182 -2.248734705230174 0 0 0
6966 1 1 0 62.799418458883814 19.087745826502 -1.6539925708164651 0 0 0
9750 1 2 0 63.660731766366 17.751288785596383 -2.190791946782619 0 0 0
9850 1 2 0 63.42385824560496 20.576571534908826 -2.1844153877553474 0 0 0
7031 1 1 0 63.64741198729122 22.171876043946035 -1.6439408094960286 0 0 0
9751 1 2 0 67.7496807952061 17.886145722950097 -2.2673261945612637 0 0 0
6997 1 1 0 68.42904616547614 19.24355404822641 -1.658069674119917 0 0 0
7032 1 1 0 68.04057028229457 22.044225433694322 -1.5416378940617514 0 0 0
9895 1 2 0 67.60938726503682 20.582072002116323 -2.240842018627095 0 0 0
9764 1 2 0 74.77785473825878 17.46884520956868 -2.198063906568946 0 0 0
9894 1 2 0 69.9612373963029 19.1388306822863 -2.2509759800087203 0 0 0
6998 1 1 0 71.48385859184599 19.26294775780766 -1.6519721653176032 0 0 0
9765 1 2 0 72.26706348201375 17.939974944256523 -2.251457754603305 0 0 0
9946 1 2 0 69.67096016156054 22.05830430581771 -1.6028425342447763 0 0 0
7039 1 1 0 71.30344815721429 22.12891969308565 -1.5550726367487622 0 0 0
9896 1 2 0 72.03107024841144 20.76098251610609 -2.18279455671707 0 0 0
6912 1 1 0 76.32685630631252 17.571151303071993 -1.6431070406037438 0 0 0
9766 1 2 0 76.89346416974891 19.049810340681834 -2.190002611017841 0 0 0
9899 1 2 0 76.4402311281364 21.844073799802953 -2.1938565100041454 0 0 0
7000 1 1 0 77.4492513673782 20.550968914872588 -1.6533630216473316 0 0 0
9898 1 2 0 79.08021798932072 20.555287408536742 -2.1627532173799775 0 0 0
13510 1 2 0 77.4378473304259 20.594910764740646 -4.839947710898615e-07 0 0 0
6967 1 1 0 82.14474374369509 17.37349496929627 -1.6474379768295513 0 0 0
9851 1 2 0 83.70461698816091 17.13987149588801 -2.2095752059815443 0 0 0
9852 1 2 0 81.24650608551215 18.662477366860113 -2.1998606468516306 0 0 0
7001 1 1 0 80.6301251743207 20.11918778579961 -1.6461698513932932 0 0 0
9900 1 2 0 81.7946788665907 21.169858787865408 -2.2035197691556356 0 0 0
7042 1 1 0 83.080267371937 22.057309004548966 -1.6500062804623559 0 0 0
9960 1 2 0 84.60496458592938 21.70404383278168 -2.2181401910773713 0 0 0
13511 1 2 0 80.57595764976828 20.097772038063706 -2.9245244395842887e-07 0 0 0
9810 1 2 0 91.45704493274731 18.024821976867596 -2.1740056907784417 0 0 0
9853 1 2 0 86.32681006040197 17.51725933582962 -2.2660702928503835 0 0 0
7006 1 1 0 87.2583933653873 18.710425154782232 -1.6465205483184928 0 0 0
9905 1 2 0 88.78622260771766 18.45955814533657 -2.2223416266780003 0 0 0
7005 1 1 0 90.23385308911813 19.000976826781137 -1.644150557042219 0 0 0
7043 1 1 0 86.1594429895458 21.560294634983794 -1.6469312197020127 0 0 0
9907 1 2 0 86.6718214785481 20.11892656105868 -2.2446077461738914 0 0 0
9906 1 2 0 90.56760799222451 20.468496729470896 -2.2778353641101545 0 0 0
7008 1 1 0 91.23555402823587 21.84139969112224 -1.6499611520943451 0 0 0
13516 1 2 0 87.22443924285564 18.708637108538326 -2.582604220200953e-07 0 0 0
9809 1 2 0 95.02579560656643 17.542227673357846 -2.3577908320077627 0 0 0
9859 1 2 0 94.956063408838 20.01597112658712 -2.1929788222329067 0 0 0
6972 1 1 0 95.8913024228419 18.75169013733623 -1.6528475072810835 0 0 0
9908 1 2 0 92.79949655494224 21.893425622857013 -2.256480211841454 0 0 0
7007 1 1 0 94.27285855599514 21.421613943879347 -1.632285474162694 0 0 0