ITEM: TIMESTEP
1722
ITEM: NUMBER OF ATOMS
16212
ITEM: BOX BOUNDS pp pp pp
0.0000000000000000e+00 2.0844813323685918e+02
0.0000000000000000e+00 1.8111341477536337e+02
-1.0000000000000000e+02 1.0000000000000000e+02
ITEM: ATOMS id type element x y z v_uncoordination
1 1 Si 162.869 154.214 1.61486 0
2 1 Si 160.076 152.178 1.62131 0
3 1 Si 166.11 153.477 1.62852 0
4 1 Si 161.086 149.169 1.63895 0
5 1 Si 164.384 149.054 1.63251 0
6 1 Si 167.324 150.498 1.61073 0
7 1 Si 162.539 157.499 1.61196 0
8 1 Si 159.352 157.92 1.62303 0
9 1 Si 156.918 155.712 1.61208 0
10 1 Si 156.629 152.419 1.63539 0
11 1 Si 168.621 155.447 1.6224 0
12 1 Si 167.994 158.609 1.60961 0
13 1 Si 164.986 159.821 1.63013 0
14 1 Si 171.758 154.728 1.61991 0
15 1 Si 172.926 157.724 1.63054 0
16 1 Si 170.754 160.191 1.62049 0
17 1 Si 132.698 174.38 1.63747 0
18 1 Si 133.156 171.037 1.61046 0
19 1 Si 129.586 175.691 1.63169 0
20 1 Si 130.488 169.269 1.62219 0
21 1 Si 127.408 170.17 1.63094 0
22 1 Si 127.008 173.444 1.64531 0
23 1 Si 135.169 176.524 1.62259 0
24 1 Si 138.369 168.368 1.63091 0
25 1 Si 140.2 170.964 1.59741 0
26 1 Si 135.189 168.351 1.62582 0
27 1 Si 140.521 174.085 1.62756 0
28 1 Si 138.323 176.278 1.60983 0
29 1 Si 131.604 0.56399 1.62348 0
30 1 Si 129.117 179.096 1.64714 0
31 1 Si 135.086 1.28752 1.62391 0
32 1 Si 136.3 179.512 1.64042 0
33 1 Si 158.44 160.982 1.63614 0
34 1 Si 155.357 160.86 1.62377 0
35 1 Si 154.606 157.829 1.63032 0
36 1 Si 159.368 163.999 1.63244 0
37 1 Si 164.951 163.123 1.62031 0
38 1 Si 162.366 165.027 1.62494 0
39 1 Si 154.042 163.653 1.63281 0
40 1 Si 156.565 165.519 1.63205 0
41 1 Si 167.483 165.216 1.61217 0
42 1 Si 163.33 168.093 1.61669 0
43 1 Si 166.561 168.402 1.63799 0
44 1 Si 140.188 15.7381 1.63675 0
45 1 Si 142.156 13.1642 1.64266 0
46 1 Si 136.948 14.9862 1.648 0
47 1 Si 137.429 9.48433 1.64566 0
48 1 Si 140.75 10.1131 1.63714 0
49 1 Si 135.384 12.0561 1.63269 0
50 1 Si 141.608 18.7614 1.61274 0
51 1 Si 144.793 19.7201 1.6349 0
52 1 Si 146.741 16.9924 1.62565 0
53 1 Si 145.366 13.9595 1.62195 0
54 1 Si 139.48 21.1222 1.64217 0
55 1 Si 134.935 17.4919 1.63176 0
56 1 Si 136.355 20.3588 1.6297 0
57 1 Si 182.37 173.805 1.56715 0
58 1 Si 180.786 171.231 1.65778 0
59 1 Si 180.659 176.339 1.57891 0
60 1 Si 177.577 175.915 1.61878 0
61 1 Si 177.711 171.048 1.63291 0
62 1 Si 175.732 173.398 1.6083 0
63 1 Si 185.588 174.172 1.5625 0
64 1 Si 182.344 168.628 1.62065 0
65 1 Si 185.462 168.626 1.61797 0
66 1 Si 186.973 171.405 1.65191 0
67 1 Si 183.833 176.537 1.62072 0
68 1 Si 145.663 23.0315 1.63077 0
69 1 Si 139.949 24.2432 1.60484 0
70 1 Si 144.788 26.3458 1.62669 0
71 1 Si 141.687 26.9051 1.63741 0
72 1 Si 150.025 16.6409 1.61537 0
73 1 Si 152.27 19.0635 1.63626 0
74 1 Si 151.349 22.1376 1.63178 0
75 1 Si 148.698 23.8913 1.63472 0
76 1 Si 143.29 166.74 1.62344 0
77 1 Si 140.251 165.71 1.61139 0
78 1 Si 145.851 164.833 1.62324 0
79 1 Si 145.33 161.655 1.62511 0
80 1 Si 142.504 160.356 1.62325 0
81 1 Si 140.128 162.504 1.63151 0
82 1 Si 143.197 169.885 1.61657 0
83 1 Si 148.889 165.91 1.63196 0
84 1 Si 149.989 168.955 1.63727 0
85 1 Si 145.368 172.19 1.63493 0
86 1 Si 148.546 171.85 1.62166 0
87 1 Si 150.949 163.464 1.65286 0
88 1 Si 147.399 159.297 1.63263 0
89 1 Si 150.3 160.357 1.63468 0
90 1 Si 156.007 168.571 1.63387 0
91 1 Si 153.072 169.718 1.60811 0
92 1 Si 121.946 28.0725 1.62351 0
93 1 Si 119.529 25.727 1.62082 0
94 1 Si 125.386 28.2616 1.62065 0
95 1 Si 122.56 21.2511 1.6182 0
96 1 Si 119.689 22.5277 1.62351 0
97 1 Si 125.49 22.3964 1.63794 0
98 1 Si 126.813 25.3392 1.60801 0
99 1 Si 119.673 30.3716 1.62742 0
100 1 Si 116.287 26.351 1.61452 0
101 1 Si 116.52 29.5121 1.63359 0
102 1 Si 128.101 30.3977 1.62441 0
103 1 Si 120.231 33.4766 1.62414 0
104 1 Si 128.391 33.7393 1.62708 0
105 1 Si 122.676 35.5941 1.62068 0
106 1 Si 125.88 35.8759 1.61566 0
107 1 Si 179.888 180.452 1.61798 0
108 1 Si 176.846 178.946 1.61261 0
109 1 Si 183.271 179.547 1.56997 0
110 1 Si 185.803 22.2274 1.63604 0
111 1 Si 187.357 19.4754 1.63025 0
112 1 Si 182.761 21.4152 1.62474 0
113 1 Si 184.869 17.3884 1.61957 0
114 1 Si 181.828 18.4679 1.63783 0
115 1 Si 185.815 25.3936 1.6112 0
116 1 Si 190.59 19.2203 1.63632 0
117 1 Si 192.004 22.3227 1.65421 0
118 1 Si 191.715 25.6972 1.62373 0
119 1 Si 186.846 28.4382 1.63767 0
120 1 Si 190.016 28.6282 1.62541 0
121 1 Si 180.969 23.9315 1.64532 0
122 1 Si 182.838 26.3667 1.62852 0
123 1 Si 109.592 3.70878 1.6501 0
124 1 Si 106.897 5.64334 1.61935 0
125 1 Si 111.974 5.8618 1.61856 0
126 1 Si 112.044 9.04851 1.61993 0
127 1 Si 106.805 8.87541 1.62068 0
128 1 Si 109.409 10.6713 1.6417 0
129 1 Si 110.27 0.371344 1.63198 0
130 1 Si 103.69 5.30624 1.62662 0
131 1 Si 102.56 2.32984 1.63283 0
132 1 Si 104.582 180.724 1.63917 0
133 1 Si 107.708 179.352 1.63598 0
134 1 Si 115.082 5.90442 1.62389 0
135 1 Si 117.143 3.66513 1.62873 0
136 1 Si 116.221 0.64839 1.6132 0
137 1 Si 113.387 180.074 1.63998 0
138 1 Si 116.865 8.50687 1.61922 0
139 1 Si 114.749 10.7206 1.62353 0
140 1 Si 121.71 2.4282 1.63219 0
141 1 Si 120.017 5.1039 1.63114 0
142 1 Si 119.421 0.026772 1.6232 0
143 1 Si 124.992 2.06793 1.62184 0
144 1 Si 127.302 4.58311 1.62538 0
145 1 Si 127.241 8.01888 1.62009 0
146 1 Si 120.005 8.33071 1.63137 0
147 1 Si 125.021 10.8515 1.61818 0
148 1 Si 121.452 11.278 1.63762 0
149 1 Si 125.777 179.869 1.63061 0
150 1 Si 123.284 177.424 1.63442 0
151 1 Si 119.985 177.991 1.62413 0
152 1 Si 130.497 3.63006 1.6158 0
153 1 Si 132.569 6.15321 1.62974 0
154 1 Si 130.531 8.71107 1.62177 0
155 1 Si 137.676 3.78936 1.61756 0
156 1 Si 135.871 6.52729 1.63305 0
157 1 Si 141.193 4.57007 1.64592 0
158 1 Si 142.874 7.59848 1.64639 0
159 1 Si 143.556 2.27657 1.63175 0
160 1 Si 139.46 179.251 1.59393 0
161 1 Si 142.528 180.264 1.63255 0
162 1 Si 148.479 6.01112 1.63024 0
163 1 Si 146.26 8.45636 1.64338 0
164 1 Si 146.802 3.11146 1.62225 0
165 1 Si 151.898 6.40989 1.63392 0
166 1 Si 154.003 9.02757 1.62124 0
167 1 Si 147.606 11.5935 1.61695 0
168 1 Si 153.599 12.2881 1.62904 0
169 1 Si 150.49 13.3622 1.62228 0
170 1 Si 153.818 3.73481 1.6252 0
171 1 Si 148.831 0.669324 1.62902 0
172 1 Si 152.025 1.05208 1.62221 0
173 1 Si 159.144 6.33737 1.63059 0
174 1 Si 157.31 8.97466 1.63274 0
175 1 Si 157.156 3.69436 1.63737 0
176 1 Si 162.502 6.62508 1.62305 0
177 1 Si 164.054 9.67601 1.63454 0
178 1 Si 158.945 11.793 1.62092 0
179 1 Si 162.208 12.4852 1.62052 0
180 1 Si 164.043 3.64854 1.63511 0
181 1 Si 158.68 0.833377 1.63418 0
182 1 Si 162.034 0.900445 1.63759 0
183 1 Si 170.234 5.13418 1.62871 0
184 1 Si 170.057 8.32309 1.61531 0
185 1 Si 167.399 3.3796 1.62874 0
186 1 Si 167.359 10.2403 1.63026 0
187 1 Si 173.276 3.69069 1.63582 0
188 1 Si 176.566 4.47656 1.62077 0
189 1 Si 175.942 7.81974 1.62376 0
190 1 Si 173.064 9.62188 1.60747 0
191 1 Si 172.174 0.732951 1.61002 0
192 1 Si 179.762 2.56973 1.62792 0
193 1 Si 173.556 178.968 1.64522 0
194 1 Si 169 0.627603 1.59968 0
195 1 Si 184.072 5.88624 1.6382 0
196 1 Si 181.514 7.84834 1.59674 0
197 1 Si 183.303 2.83142 1.6244 0
198 1 Si 178.705 9.43965 1.64132 0
199 1 Si 187.215 6.77202 1.6179 0
200 1 Si 183.551 10.1832 1.62178 0
201 1 Si 186.654 9.83122 1.6353 0
202 1 Si 186.362 1.20045 1.60072 0
203 1 Si 186.781 179.068 1.58016 0
204 1 Si 189.989 5.05522 1.6275 0
205 1 Si 189.653 1.7834 1.62433 0
206 1 Si 195.578 4.62818 1.62696 0
207 1 Si 192.849 6.58537 1.63281 0
208 1 Si 197.524 7.08974 1.61489 0
209 1 Si 193.065 9.98751 1.64589 0
210 1 Si 196.24 9.95886 1.60354 0
211 1 Si 196.993 1.60519 1.63887 0
212 1 Si 191.85 180.276 1.62516 0
213 1 Si 195.26 179.876 1.63006 0
214 1 Si 202.138 4.21888 1.63764 0
215 1 Si 200.639 7.03165 1.62054 0
216 1 Si 200.351 1.42028 1.62858 0
217 1 Si 205.375 4.6185 1.63418 0
218 1 Si 207.072 7.50669 1.64597 0
219 1 Si 201.857 9.9884 1.60313 0
220 1 Si 205.152 10.2498 1.6413 0
221 1 Si 206.861 1.7378 1.62876 0
222 1 Si 202.046 179.687 1.63119 0
223 1 Si 205.352 179.952 1.63828 0
224 1 Si 3.31988 4.63074 1.63355 0
225 1 Si 2.04146 7.52853 1.62005 0
226 1 Si 1.60458 1.92122 1.64446 0
227 1 Si 6.48721 4.59878 1.61089 0
228 1 Si 5.11718 9.12795 1.62978 0
229 1 Si 9.26051 6.21216 1.63857 0
230 1 Si 8.62659 9.26428 1.62959 0
231 1 Si 7.701 1.751 1.61731 0
232 1 Si 6.3149 180.14 1.62295 0
233 1 Si 3.21655 180.334 1.64135 0
234 1 Si 103.905 10.2825 1.64468 0
235 1 Si 101.674 7.91428 1.61654 0
236 1 Si 132.026 11.6413 1.63193 0
237 1 Si 126.694 13.8515 1.61384 0
238 1 Si 130.027 14.2434 1.63273 0
239 1 Si 156.536 13.9644 1.6063 0
240 1 Si 168.681 13.2271 1.62164 0
241 1 Si 171.972 12.7402 1.6332 0
242 1 Si 179.051 12.6941 1.63493 0
243 1 Si 182.238 12.9479 1.62469 0
244 1 Si 187.967 12.6506 1.62541 0
245 1 Si 191.186 12.8605 1.65338 0
246 1 Si 198.999 11.5625 1.62984 0
247 1 Si 206.78 13.0786 1.62857 0
248 1 Si 4.45827 12.1565 1.63311 0
249 1 Si 1.49367 13.2846 1.61249 0
250 1 Si 109.771 13.8258 1.63132 0
251 1 Si 115.484 13.8033 1.61451 0
252 1 Si 112.623 15.445 1.64758 0
253 1 Si 163.605 15.6347 1.62128 0
254 1 Si 167.015 16.1493 1.63613 0
255 1 Si 173.802 15.4103 1.63022 0
256 1 Si 177.104 15.3152 1.62602 0
257 1 Si 10.7581 1.88715 1.62085 0
258 1 Si 12.0672 4.69722 1.58291 0
259 1 Si 12.2031 180.328 1.60541 0
260 1 Si 14.9354 3.28377 1.63919 0
261 1 Si 15.1988 0.079983 1.59317 0
262 1 Si 7.72212 177.314 1.61607 0
263 1 Si 10.9283 177.456 1.6249 0
264 1 Si 185.169 14.2962 1.63151 0
265 1 Si 20.2371 3.61105 1.59109 0
266 1 Si 17.3727 5.22317 1.63325 0
267 1 Si 21.7422 6.33727 1.62377 0
268 1 Si 16.8296 8.45497 1.61089 0
269 1 Si 19.9624 8.90876 1.6217 0
270 1 Si 22.8515 1.62069 1.63675 0
271 1 Si 22.5288 179.54 1.62378 0
272 1 Si 16.4274 178.262 1.63291 0
273 1 Si 19.6804 177.897 1.60127 0
274 1 Si 198.34 14.6227 1.63427 0
275 1 Si 192.122 16.0983 1.63395 0
276 1 Si 195.346 15.9223 1.61779 0
277 1 Si 25.8227 3.03262 1.61939 0
278 1 Si 24.8928 6.06794 1.62585 0
279 1 Si 29.0312 2.39746 1.65414 0
280 1 Si 31.5009 4.55903 1.61498 0
281 1 Si 26.4817 8.76107 1.61399 0
282 1 Si 31.9353 7.76507 1.62841 0
283 1 Si 29.4986 9.77805 1.62928 0
284 1 Si 30.0954 180.463 1.62672 0
285 1 Si 25.1118 177.51 1.61341 0
286 1 Si 28.3788 177.741 1.63051 0
287 1 Si 201.16 16.1849 1.57678 0
288 1 Si 206.457 16.3166 1.62704 0
289 1 Si 203.813 17.9717 1.63276 0
290 1 Si 34.6097 3.70581 1.62762 0
291 1 Si 35.7017 0.71578 1.63332 0
292 1 Si 33.2432 179.753 1.61917 0
293 1 Si 41.2335 2.66416 1.63605 0
294 1 Si 44.6604 2.47295 1.64204 0
295 1 Si 39.9403 5.77275 1.64557 0
296 1 Si 46.4514 5.49184 1.61729 0
297 1 Si 41.5001 8.70312 1.648 0
298 1 Si 44.7828 8.35439 1.62049 0
299 1 Si 38.9555 0.0599809 1.63271 0
300 1 Si 45.9884 180.357 1.61896 0
301 1 Si 41.8684 175.795 1.62469 0
302 1 Si 44.9297 177.162 1.63237 0
303 1 Si 39.2416 177.81 1.61576 0
304 1 Si 36.7215 6.10105 1.62067 0
305 1 Si 106.876 15.209 1.62172 0
306 1 Si 103.909 13.563 1.63552 0
307 1 Si 51.1614 3.0718 1.59907 0
308 1 Si 49.8329 6.01276 1.63942 0
309 1 Si 51.5158 181.036 1.64735 0
310 1 Si 49.0578 179.201 1.61907 0
311 1 Si 118.888 13.9952 1.62289 0
312 1 Si 54.177 2.29021 1.60661 0
313 1 Si 57.101 3.40672 1.61996 0
314 1 Si 57.5451 6.49305 1.61026 0
315 1 Si 52.045 8.80534 1.62609 0
316 1 Si 55.3295 8.8435 1.62272 0
317 1 Si 54.5579 180.296 1.57895 0
318 1 Si 59.5081 1.24417 1.62796 0
319 1 Si 57.6428 179.726 1.64302 0
320 1 Si 119.296 17.3092 1.63648 0
321 1 Si 125.379 16.8637 1.64525 0
322 1 Si 122.422 18.0613 1.61004 0
323 1 Si 68.9743 4.52443 1.60912 0
324 1 Si 66.3588 6.40314 1.62387 0
325 1 Si 71.8929 5.98008 1.62118 0
326 1 Si 67.7603 9.36065 1.6291 0
327 1 Si 71.1053 9.08856 1.62371 0
328 1 Si 63.2884 5.21198 1.63098 0
329 1 Si 62.7658 1.90327 1.62545 0
330 1 Si 68.5229 1.40508 1.6209 0
331 1 Si 65.5779 181.104 1.60377 0
332 1 Si 60.6935 7.23762 1.6132 0
333 1 Si 131.701 17.1142 1.6264 0
334 1 Si 74.4245 1.57484 1.61981 0
335 1 Si 74.9768 4.77202 1.63804 0
336 1 Si 71.4967 0.24323 1.62844 0
337 1 Si 76.635 180.306 1.63396 0
338 1 Si 80.4232 3.226 1.6204 0
339 1 Si 79.7947 180.828 1.62386 0
340 1 Si 78.2396 5.88104 1.61958 0
341 1 Si 75.1267 177.513 1.60746 0
342 1 Si 72.0731 178.314 1.62229 0
343 1 Si 83.6454 4.06445 1.64234 0
344 1 Si 85.1581 1.08371 1.62861 0
345 1 Si 81.3625 177.6 1.62488 0
346 1 Si 84.3933 178.88 1.62867 0
347 1 Si 85.2174 7.19204 1.62043 0
348 1 Si 79.71 9.1022 1.62493 0
349 1 Si 83.2537 10.0768 1.63214 0
350 1 Si 90.3193 4.19505 1.63275 0
351 1 Si 88.7115 7.36209 1.61745 0
352 1 Si 88.3811 1.38626 1.61689 0
353 1 Si 93.6518 3.33533 1.62233 0
354 1 Si 96.7563 4.76692 1.61426 0
355 1 Si 98.3246 7.69033 1.62949 0
356 1 Si 90.154 10.6165 1.62986 0
357 1 Si 93.4275 11.246 1.60915 0
358 1 Si 96.5363 10.3605 1.62547 0
359 1 Si 94.3336 0.102961 1.61174 0
360 1 Si 92.3244 178.642 1.65289 0
361 1 Si 89.2002 179.319 1.62723 0
362 1 Si 158.012 16.9601 1.63331 0
363 1 Si 161.314 18.0977 1.63365 0
364 1 Si 99.2469 2.60767 1.59747 0
365 1 Si 97.5343 181.025 1.61468 0
366 1 Si 168.996 18.9694 1.62368 0
367 1 Si 172.181 18.2612 1.62237 0
368 1 Si 102.464 178.395 1.62378 0
369 1 Si 99.3037 178.454 1.63127 0
370 1 Si 178.62 18.2129 1.64129 0
371 1 Si 11.5357 11.0997 1.6041 0
372 1 Si 14.9309 11.1428 1.64337 0
373 1 Si 21.5637 11.6227 1.6446 0
374 1 Si 24.7171 11.3964 1.62844 0
375 1 Si 196.341 18.8154 1.63502 0
376 1 Si 199.413 18.7239 1.62257 0
377 1 Si 7.09197 14.0094 1.62215 0
378 1 Si 2.5998 16.1986 1.62718 0
379 1 Si 5.66534 16.7782 1.63513 0
380 1 Si 34.9948 8.80173 1.61419 0
381 1 Si 111.944 18.6038 1.62274 0
382 1 Si 108.711 17.9674 1.63342 0
383 1 Si 117.436 20.1464 1.61537 0
384 1 Si 114.185 21.1068 1.64416 0
385 1 Si 39.7168 11.5783 1.61481 0
386 1 Si 36.4779 11.6327 1.62966 0
387 1 Si 127.093 19.6171 1.62704 0
388 1 Si 130.232 19.9718 1.63406 0
389 1 Si 46.3291 11.1285 1.64085 0
390 1 Si 52.137 12.3001 1.62935 0
391 1 Si 49.0683 12.6341 1.63732 0
392 1 Si 60.3159 10.4194 1.62186 0
393 1 Si 57.2491 11.4964 1.61765 0
394 1 Si 155.571 19.0622 1.61643 0
395 1 Si 65.8245 11.9919 1.62428 0
396 1 Si 62.6406 12.5715 1.62345 0
397 1 Si 73.8826 10.9108 1.62526 0
398 1 Si 77.2768 11.381 1.63795 0
399 1 Si 162.263 21.4582 1.61212 0
400 1 Si 169.158 22.4148 1.61647 0
401 1 Si 164.108 24.3969 1.61432 0
402 1 Si 167.289 25.1545 1.6341 0
403 1 Si 173.753 21.046 1.6319 0
404 1 Si 176.904 21.0329 1.62841 0
405 1 Si 88.45 13.6863 1.63254 0
406 1 Si 85.0391 13.4798 1.63875 0
407 1 Si 10.2777 14.0611 1.62431 0
408 1 Si 16.7003 14.0443 1.63995 0
409 1 Si 19.9957 14.3964 1.63635 0
410 1 Si 0.459535 18.4057 1.61665 0
411 1 Si 26.5858 13.9233 1.62368 0
412 1 Si 29.6516 12.9869 1.6145 0
413 1 Si 45.0991 13.9693 1.60343 0
414 1 Si 39.8189 14.9004 1.6347 0
415 1 Si 42.7536 15.9639 1.61908 0
416 1 Si 56.8413 14.7797 1.61971 0
417 1 Si 53.7211 15.5102 1.62001 0
418 1 Si 131.591 22.9263 1.63449 0
419 1 Si 134.725 23.057 1.6224 0
420 1 Si 72.6814 13.7889 1.61281 0
421 1 Si 66.8631 15.036 1.6253 0
422 1 Si 69.9887 15.4116 1.63277 0
423 1 Si 75.3412 15.4717 1.61793 0
424 1 Si 78.343 14.524 1.61714 0
425 1 Si 94.739 14.1968 1.61858 0
426 1 Si 93.2541 17.0562 1.62284 0
427 1 Si 89.9159 16.9657 1.61341 0
428 1 Si 156.756 21.9865 1.62104 0
429 1 Si 159.618 23.2283 1.61821 0
430 1 Si 97.8192 13.2972 1.62179 0
431 1 Si 172.138 23.8347 1.61129 0
432 1 Si 100.773 14.7364 1.63069 0
433 1 Si 177.899 24.1422 1.61593 0
434 1 Si 195.084 21.6007 1.62197 0
435 1 Si 11.9094 16.8716 1.63063 0
436 1 Si 15.1844 16.9351 1.64696 0
437 1 Si 200.547 21.541 1.63475 0
438 1 Si 203.633 21.1964 1.62609 0
439 1 Si 21.9319 17.1036 1.63291 0
440 1 Si 25.2682 16.8724 1.64631 0
441 1 Si 6.96034 19.6678 1.64903 0
442 1 Si 1.65242 21.332 1.65429 0
443 1 Si 4.76884 22.005 1.62381 0
444 1 Si 31.9481 15.211 1.65442 0
445 1 Si 35.1008 14.5702 1.61462 0
446 1 Si 106.557 20.1627 1.64002 0
447 1 Si 106.111 23.2397 1.62239 0
448 1 Si 113.48 24.4935 1.63288 0
449 1 Si 110.49 26.3951 1.60869 0
450 1 Si 107.03 26.2249 1.62465 0
451 1 Si 130.026 25.7179 1.60883 0
452 1 Si 47.8146 15.4211 1.60472 0
453 1 Si 136.97 25.2188 1.62089 0
454 1 Si 61.8645 15.7213 1.62201 0
455 1 Si 59.0587 17.3048 1.61841 0
456 1 Si 154.112 23.6156 1.61923 0
457 1 Si 64.5646 17.3575 1.62161 0
458 1 Si 71.1496 18.302 1.62454 0
459 1 Si 74.2766 18.3383 1.6358 0
460 1 Si 159.848 26.4175 1.63241 0
461 1 Si 162.795 27.5291 1.61555 0
462 1 Si 80.5869 16.9848 1.63468 0
463 1 Si 83.8797 16.8598 1.63092 0
464 1 Si 173.485 26.9117 1.64515 0
465 1 Si 176.775 27.2532 1.62764 0
466 1 Si 100.771 17.9148 1.65439 0
467 1 Si 95.0637 19.8278 1.63289 0
468 1 Si 98.3248 19.978 1.62969 0
469 1 Si 10.1892 19.6584 1.62446 0
470 1 Si 16.9168 19.7619 1.63643 0
471 1 Si 20.3007 19.9603 1.63751 0
472 1 Si 197.854 23.133 1.63357 0
473 1 Si 27.6794 19.0988 1.61965 0
474 1 Si 30.812 18.2336 1.62105 0
475 1 Si 205.102 23.9943 1.62993 0
476 1 Si 208.296 23.9276 1.60862 0
477 1 Si 37.2475 16.9794 1.60246 0
478 1 Si 103.534 19.4285 1.59147 0
479 1 Si 103.104 22.5232 1.5842 0
480 1 Si 47.7903 18.4468 1.6399 0
481 1 Si 50.5612 19.9962 1.61577 0
482 1 Si 53.6183 19.0629 1.64462 0
483 1 Si 69.6105 20.9562 1.62217 0
484 1 Si 63.9758 20.5793 1.63162 0
485 1 Si 66.7006 22.0592 1.62845 0
486 1 Si 131.027 28.8148 1.62429 0
487 1 Si 136.861 28.2803 1.61814 0
488 1 Si 134.155 29.9091 1.63017 0
489 1 Si 76.3117 20.6538 1.62047 0
490 1 Si 79.4385 20.0671 1.62577 0
491 1 Si 148.909 27.0857 1.62232 0
492 1 Si 146.556 29.2557 1.59206 0
493 1 Si 85.382 20.1856 1.63303 0
494 1 Si 88.703 20.259 1.62293 0
495 1 Si 154.398 26.641 1.6183 0
496 1 Si 151.768 28.2821 1.6289 0
497 1 Si 157.178 28.0607 1.62568 0
498 1 Si 168.436 28.4247 1.61486 0
499 1 Si 171.568 29.5749 1.62397 0
500 1 Si 178.786 30.0237 1.63985 0
501 1 Si 181.96 29.3371 1.60898 0
502 1 Si 11.6841 22.5079 1.64528 0
503 1 Si 15.0193 22.4499 1.63462 0
504 1 Si 21.9782 22.8634 1.60362 0
505 1 Si 27.8846 22.3602 1.62575 0
506 1 Si 25.1346 24.1234 1.63104 0
507 1 Si 197.555 26.2022 1.61641 0
508 1 Si 194.513 27.2737 1.62322 0
509 1 Si 32.8767 20.7066 1.62527 0
510 1 Si 36.1358 20.1501 1.64401 0
511 1 Si 200.372 27.7453 1.63222 0
512 1 Si 203.487 26.821 1.63848 0
513 1 Si 4.50491 25.193 1.62819 0
514 1 Si 1.62259 26.5394 1.61659 0
515 1 Si 44.5894 18.5235 1.62602 0
516 1 Si 110.865 29.6758 1.61801 0
517 1 Si 108.527 31.8834 1.619 0
518 1 Si 104.138 28.2352 1.63176 0
519 1 Si 105.371 31.2057 1.62738 0
520 1 Si 113.752 31.1098 1.63261 0
521 1 Si 43.9485 21.5087 1.63675 0
522 1 Si 49.8581 23.0614 1.62979 0
523 1 Si 46.7022 23.1237 1.6273 0
524 1 Si 55.7101 21.9668 1.62996 0
525 1 Si 58.7823 20.7229 1.62358 0
526 1 Si 139.798 29.4795 1.61863 0
527 1 Si 71.5534 23.3993 1.6329 0
528 1 Si 74.6661 23.3328 1.62924 0
529 1 Si 152.935 31.1732 1.6283 0
530 1 Si 147.488 32.6071 1.62808 0
531 1 Si 150.81 33.5451 1.6226 0
532 1 Si 156.159 31.0255 1.62986 0
533 1 Si 80.8406 22.9341 1.62344 0
534 1 Si 84.0109 23.4738 1.61706 0
535 1 Si 163.56 30.8545 1.64342 0
536 1 Si 166.863 31.3256 1.63056 0
537 1 Si 90.484 23.2949 1.63508 0
538 1 Si 93.7321 22.8334 1.6383 0
539 1 Si 172.219 32.944 1.62747 0
540 1 Si 178.38 33.3815 1.63309 0
541 1 Si 175.366 34.9119 1.62244 0
542 1 Si 184.707 30.9417 1.60866 0
543 1 Si 100.02 22.6997 1.63494 0
544 1 Si 9.73968 25.1644 1.61883 0
545 1 Si 6.99893 27.0558 1.63355 0
546 1 Si 194.235 30.4405 1.62864 0
547 1 Si 191.347 31.7699 1.58913 0
548 1 Si 199.644 30.8404 1.61891 0
549 1 Si 196.821 32.2435 1.61112 0
550 1 Si 16.6532 25.2729 1.64527 0
551 1 Si 19.9585 25.3957 1.59519 0
552 1 Si 31.062 23.4187 1.63075 0
553 1 Si 205.487 29.2867 1.6411 0
554 1 Si 0.186805 29.3629 1.63666 0
555 1 Si 37.9857 22.8688 1.6274 0
556 1 Si 41.1098 22.8226 1.60417 0
557 1 Si 55.0214 25.5399 1.6252 0
558 1 Si 51.7535 25.6589 1.63952 0
559 1 Si 61.4244 22.7575 1.63082 0
560 1 Si 69.7824 25.9556 1.6413 0
561 1 Si 66.7509 25.2036 1.63196 0
562 1 Si 135.975 32.6468 1.62783 0
563 1 Si 139.349 32.6158 1.63522 0
564 1 Si 76.0316 26.1356 1.63597 0
565 1 Si 79.1647 25.6832 1.62627 0
566 1 Si 83.9141 27.0248 1.60732 0
567 1 Si 89.9865 26.6822 1.60687 0
568 1 Si 88.4034 29.533 1.63693 0
569 1 Si 85.293 30.15 1.62809 0
570 1 Si 158.045 33.5321 1.61186 0
571 1 Si 161.352 33.4587 1.63361 0
572 1 Si 95.7014 25.4091 1.62297 0
573 1 Si 98.8759 25.5715 1.61503 0
574 1 Si 168.994 33.9914 1.62253 0
575 1 Si 184.201 34.1519 1.62975 0
576 1 Si 181.146 35.3597 1.61072 0
577 1 Si 11.3807 27.7814 1.62147 0
578 1 Si 14.5378 27.7057 1.63673 0
579 1 Si 22.2961 27.6341 1.61464 0
580 1 Si 25.5467 27.416 1.61797 0
581 1 Si 204.651 32.3292 1.62469 0
582 1 Si 201.681 33.2204 1.62681 0
583 1 Si 32.5502 26.3889 1.61577 0
584 1 Si 38.0759 26.1927 1.6336 0
585 1 Si 35.4638 27.9171 1.63183 0
586 1 Si 114.233 34.26 1.62552 0
587 1 Si 109.05 35.0997 1.62072 0
588 1 Si 111.93 36.5826 1.63502 0
589 1 Si 6.4192 30.3437 1.61974 0
590 1 Si 1.08273 32.4745 1.62967 0
591 1 Si 4.27443 32.9711 1.64547 0
592 1 Si 42.3028 25.7028 1.62669 0
593 1 Si 45.3925 25.8967 1.64098 0
594 1 Si 117.348 34.8692 1.62729 0
595 1 Si 131.119 35.6724 1.61442 0
596 1 Si 134.441 35.4628 1.63296 0
597 1 Si 61.5314 26.1995 1.6208 0
598 1 Si 56.3668 28.9387 1.63534 0
599 1 Si 59.774 29.0703 1.61876 0
600 1 Si 141.806 34.993 1.61415 0
601 1 Si 145.401 35.266 1.62832 0
602 1 Si 70.9385 28.8725 1.61356 0
603 1 Si 74.2044 28.7988 1.63867 0
604 1 Si 152.691 36.3221 1.63274 0
605 1 Si 156.083 36.1534 1.60909 0
606 1 Si 80.9049 28.319 1.60913 0
607 1 Si 161.904 36.6728 1.63185 0
608 1 Si 168.143 37.268 1.64257 0
609 1 Si 164.885 38.2311 1.6215 0
610 1 Si 92.1131 29.1432 1.6196 0
611 1 Si 95.202 28.5549 1.61681 0
612 1 Si 191.897 35.1742 1.6272 0
613 1 Si 186.258 36.6431 1.60996 0
614 1 Si 189.404 37.1972 1.62556 0
615 1 Si 100.643 28.2815 1.62704 0
616 1 Si 197.39 35.4154 1.62241 0
617 1 Si 194.718 37.131 1.62788 0
618 1 Si 9.58695 30.3871 1.61196 0
619 1 Si 14.9011 30.8157 1.61873 0
620 1 Si 20.9148 30.3906 1.64628 0
621 1 Si 17.9501 31.4834 1.61002 0
622 1 Si 206.958 34.511 1.62953 0
623 1 Si 103.837 33.9681 1.62907 0
624 1 Si 106.099 36.2581 1.62103 0
625 1 Si 28.0057 29.751 1.63962 0
626 1 Si 31.1084 29.2464 1.63548 0
627 1 Si 118.155 37.8793 1.6403 0
628 1 Si 121.235 38.4829 1.62216 0
629 1 Si 40.6372 28.3107 1.6487 0
630 1 Si 126.885 39.0051 1.6153 0
631 1 Si 130.057 38.7487 1.6266 0
632 1 Si 47.0121 28.5135 1.61294 0
633 1 Si 50.1729 28.4298 1.63171 0
634 1 Si 136.643 37.9793 1.64607 0
635 1 Si 140.057 37.834 1.63829 0
636 1 Si 64.5229 27.409 1.6123 0
637 1 Si 147.311 38.2539 1.63008 0
638 1 Si 150.771 39.0135 1.63709 0
639 1 Si 158.81 37.9494 1.63159 0
640 1 Si 65.1636 30.6148 1.6239 0
641 1 Si 68.6275 31.2726 1.62667 0
642 1 Si 75.9034 31.4889 1.64125 0
643 1 Si 79.2062 31.1104 1.63997 0
644 1 Si 176.284 38.4067 1.62646 0
645 1 Si 170.505 39.7505 1.61651 0
646 1 Si 173.763 40.4205 1.63019 0
647 1 Si 90.5566 31.9727 1.60242 0
648 1 Si 181.76 38.6424 1.63138 0
649 1 Si 179.188 40.6151 1.62882 0
650 1 Si 97.9507 30.3321 1.63381 0
651 1 Si 184.913 39.6027 1.61571 0
652 1 Si 200.52 36.1791 1.62634 0
653 1 Si 12.0718 32.2857 1.62778 0
654 1 Si 205.879 37.6602 1.62947 0
655 1 Si 202.629 38.6528 1.62343 0
656 1 Si 4.97795 36.2298 1.65067 0
657 1 Si 208.222 39.9832 1.63102 0
658 1 Si 2.99196 39.0318 1.64427 0
659 1 Si 23.3431 32.3031 1.58957 0
660 1 Si 28.8438 33.0347 1.63088 0
661 1 Si 25.9415 33.8851 1.657 0
662 1 Si 11.1943 35.2654 1.63097 0
663 1 Si 8.23303 36.533 1.61711 0
664 1 Si 32.9809 31.859 1.61171 0
665 1 Si 36.0413 31.1671 1.60006 0
666 1 Si 112.765 39.778 1.60683 0
667 1 Si 115.943 40.0934 1.61388 0
668 1 Si 42.1765 31.2943 1.63714 0
669 1 Si 45.4455 31.2635 1.60738 0
670 1 Si 122.179 41.5843 1.64522 0
671 1 Si 125.39 41.9469 1.63144 0
672 1 Si 51.1547 31.4158 1.61975 0
673 1 Si 54.3778 31.9905 1.62138 0
674 1 Si 131.855 41.3931 1.63378 0
675 1 Si 135.116 40.8979 1.63622 0
676 1 Si 61.8346 31.8008 1.61088 0
677 1 Si 141.969 40.5702 1.63162 0
678 1 Si 145.331 40.8889 1.63455 0
679 1 Si 70.52 34.0378 1.62213 0
680 1 Si 73.9493 34.1352 1.62385 0
681 1 Si 80.9686 33.7492 1.61273 0
682 1 Si 84.2184 33.4427 1.61065 0
683 1 Si 158.415 41.0976 1.62281 0
684 1 Si 152.429 42.0545 1.63412 0
685 1 Si 155.766 43.026 1.63721 0
686 1 Si 97.7243 33.6906 1.62784 0
687 1 Si 91.4434 35.2576 1.63616 0
688 1 Si 95.0979 36.0395 1.62421 0
689 1 Si 100.796 34.9312 1.62058 0
690 1 Si 164.382 41.4685 1.63146 0
691 1 Si 161.346 42.4422 1.62341 0
692 1 Si 169.699 42.9054 1.62247 0
693 1 Si 166.665 43.7925 1.642 0
694 1 Si 189.842 40.4208 1.61465 0
695 1 Si 187.088 42.166 1.62287 0
696 1 Si 18.359 34.5377 1.61623 0
697 1 Si 21.3732 34.6459 1.62606 0
698 1 Si 33.2238 35.0819 1.62743 0
699 1 Si 30.2957 36.0756 1.64125 0
700 1 Si 195.484 40.3707 1.61413 0
701 1 Si 192.652 41.9415 1.62033 0
702 1 Si 111.928 43.0137 1.634 0
703 1 Si 108.842 44.2016 1.62409 0
704 1 Si 105.981 42.1571 1.60253 0
705 1 Si 104.805 39.1079 1.63314 0
706 1 Si 37.604 34.0811 1.63153 0
707 1 Si 40.7922 34.3508 1.62854 0
708 1 Si 116.93 43.0521 1.62991 0
709 1 Si 119.965 43.9692 1.6249 0
710 1 Si 48.2406 32.9136 1.62876 0
711 1 Si 126.981 44.8724 1.63297 0
712 1 Si 130.257 44.2762 1.613 0
713 1 Si 54.2642 35.4824 1.63115 0
714 1 Si 60.0882 34.9237 1.63609 0
715 1 Si 57.1606 37.1963 1.63248 0
716 1 Si 136.969 43.5486 1.64342 0
717 1 Si 140.214 43.3476 1.64142 0
718 1 Si 146.856 43.8386 1.6413 0
719 1 Si 150.107 44.3646 1.61939 0
720 1 Si 157.567 45.8819 1.60483 0
721 1 Si 160.762 45.53 1.63705 0
722 1 Si 13.7804 37.0971 1.60382 0
723 1 Si 16.8823 37.2411 1.6466 0
724 1 Si 174.682 43.601 1.61682 0
725 1 Si 171.971 45.231 1.63044 0
726 1 Si 22.6805 37.3198 1.61396 0
727 1 Si 25.6799 36.909 1.63035 0
728 1 Si 180.043 44.1565 1.60726 0
729 1 Si 177.193 45.6577 1.61671 0
730 1 Si 35.9018 36.8932 1.61463 0
731 1 Si 201.506 41.8466 1.63212 0
732 1 Si 198.099 42.4509 1.63319 0
733 1 Si 48.136 36.0484 1.61984 0
734 1 Si 42.0118 37.5329 1.63205 0
735 1 Si 45.3107 37.7286 1.61296 0
736 1 Si 207.289 43.2763 1.62085 0
737 1 Si 204.025 44.188 1.639 0
738 1 Si 51.2347 37.1999 1.60796 0
739 1 Si 114.554 45.1266 1.60568 0
740 1 Si 62.5818 36.8002 1.64273 0
741 1 Si 65.7202 37.2449 1.62015 0
742 1 Si 61.5278 39.7317 1.59679 0
743 1 Si 64.5832 40.1474 1.61772 0
744 1 Si 119.645 47.2218 1.62375 0
745 1 Si 125.496 47.9404 1.6144 0
746 1 Si 122.402 49.0384 1.63174 0
747 1 Si 68.9278 36.8898 1.63644 0
748 1 Si 75.9311 36.8339 1.64259 0
749 1 Si 79.3463 36.5769 1.61211 0
750 1 Si 132.248 46.756 1.64176 0
751 1 Si 135.408 46.3924 1.64341 0
752 1 Si 85.2211 36.6611 1.62498 0
753 1 Si 88.6536 37.5579 1.63491 0
754 1 Si 141.719 46.19 1.64125 0
755 1 Si 144.906 46.4339 1.63675 0
756 1 Si 96.5708 39.3961 1.61925 0
757 1 Si 101.733 38.0179 1.61066 0
758 1 Si 99.8942 40.5183 1.64167 0
759 1 Si 151.015 47.4077 1.64029 0
760 1 Si 158.361 49.1157 1.56763 0
761 1 Si 153.731 48.8692 1.56584 0
762 1 Si 155.909 50.8746 1.63731 0
763 1 Si 166.299 47.0336 1.63384 0
764 1 Si 163.124 47.735 1.63275 0
765 1 Si 9.40594 39.4285 1.62659 0
766 1 Si 12.4712 39.8892 1.62403 0
767 1 Si 18.4212 40.0129 1.63837 0
768 1 Si 21.4991 40.0948 1.62547 0
769 1 Si 187.572 45.618 1.62466 0
770 1 Si 181.923 47.1799 1.61949 0
771 1 Si 185.183 47.9413 1.63505 0
772 1 Si 171.875 48.4851 1.63657 0
773 1 Si 168.746 49.3046 1.63256 0
774 1 Si 27.007 39.5955 1.62354 0
775 1 Si 30.0841 39.373 1.60673 0
776 1 Si 193.087 45.0908 1.61993 0
777 1 Si 190.665 47.2856 1.65227 0
778 1 Si 36.7874 40.1623 1.64657 0
779 1 Si 40.1743 40.504 1.63417 0
780 1 Si 46.7064 40.5963 1.61504 0
781 1 Si 49.9493 40.2172 1.63773 0
782 1 Si 196.361 45.2747 1.62342 0
783 1 Si 4.52816 41.8482 1.6301 0
784 1 Si 7.61491 41.9033 1.63916 0
785 1 Si 1.06605 45.857 1.62213 0
786 1 Si 4.15044 45.0607 1.63957 0
787 1 Si 56.766 40.8006 1.61382 0
788 1 Si 59.6713 42.21 1.62743 0
789 1 Si 108.948 47.6797 1.62988 0
790 1 Si 103.072 45.9482 1.62372 0
791 1 Si 102.658 42.7149 1.61122 0
792 1 Si 105.663 48.1844 1.62218 0
793 1 Si 116.341 47.9501 1.63122 0
794 1 Si 70.8192 39.5543 1.63673 0
795 1 Si 74.1281 39.6053 1.63363 0
796 1 Si 126.245 51.1214 1.56509 0
797 1 Si 130.759 49.5088 1.56126 0
798 1 Si 128.976 52.4333 1.60503 0
799 1 Si 82.1648 38.3761 1.62982 0
800 1 Si 136.907 49.1883 1.64302 0
801 1 Si 140.032 48.9247 1.63316 0
802 1 Si 89.2038 40.9132 1.63539 0
803 1 Si 95.2032 42.453 1.63565 0
804 1 Si 91.9418 42.7639 1.62798 0
805 1 Si 145.932 49.4819 1.62836 0
806 1 Si 148.988 49.8017 1.62534 0
807 1 Si 162.853 50.8757 1.61291 0
808 1 Si 159.939 52.0776 1.59545 0
809 1 Si 177.255 48.9761 1.62997 0
810 1 Si 174.438 50.6777 1.62974 0
811 1 Si 13.9097 42.6154 1.62226 0
812 1 Si 17.0471 42.7974 1.62269 0
813 1 Si 180.292 50.1739 1.61865 0
814 1 Si 24.3779 41.289 1.64388 0
815 1 Si 31.1593 42.4494 1.63229 0
816 1 Si 34.548 42.828 1.64292 0
817 1 Si 203.51 47.5475 1.65455 0
818 1 Si 197.491 48.2632 1.62293 0
819 1 Si 200.608 49.128 1.6177 0
820 1 Si 41.6341 43.6227 1.62254 0
821 1 Si 44.8946 43.2472 1.62554 0
822 1 Si 205.913 49.8238 1.62149 0
823 1 Si 0.642183 49.1527 1.6137 0
824 1 Si 111.365 50.4884 1.62831 0
825 1 Si 114.815 50.9212 1.62836 0
826 1 Si 51.4803 43.0045 1.62262 0
827 1 Si 54.6468 43.4709 1.62367 0
828 1 Si 122.275 52.3303 1.60666 0
829 1 Si 124.976 54.1186 1.58405 0
830 1 Si 66.1052 42.8349 1.6312 0
831 1 Si 69.2332 42.3646 1.63105 0
832 1 Si 132.524 52.3781 1.60419 0
833 1 Si 135.548 52.0631 1.63029 0
834 1 Si 81.4287 41.6032 1.62583 0
835 1 Si 75.5449 42.5714 1.63866 0
836 1 Si 78.651 43.4217 1.62056 0
837 1 Si 141.213 51.8194 1.63097 0
838 1 Si 144.296 52.1794 1.61929 0
839 1 Si 83.738 43.8264 1.61851 0
840 1 Si 86.8923 43.2795 1.62004 0
841 1 Si 150.258 52.5965 1.6468 0
842 1 Si 153.21 52.1264 1.5674 0
843 1 Si 99.9478 46.7719 1.62041 0
844 1 Si 96.9813 45.3441 1.6367 0
845 1 Si 168.435 52.57 1.6197 0
846 1 Si 165.262 53.0124 1.63502 0
847 1 Si 174.136 54.0908 1.62892 0
848 1 Si 170.833 54.9321 1.63022 0
849 1 Si 8.92447 44.7136 1.62257 0
850 1 Si 12.0036 45.0873 1.63734 0
851 1 Si 192.099 50.5073 1.62651 0
852 1 Si 186.219 51.1599 1.60507 0
853 1 Si 188.299 53.6547 1.64189 0
854 1 Si 191.451 53.9134 1.62181 0
855 1 Si 25.0093 44.286 1.61938 0
856 1 Si 18.6455 45.5027 1.64719 0
857 1 Si 21.9416 45.6458 1.6344 0
858 1 Si 195.358 50.7268 1.61208 0
859 1 Si 28.4036 44.5653 1.63104 0
860 1 Si 35.4774 46.0057 1.60413 0