LAMMPS data file via write_data, version 23 Jun 2022, timestep = 7405

15252 atoms
2 atom types

4.952631184507593 197.57994040143916 xlo xhi
4.400310618689059 170.730534447495 ylo yhi
-100 100 zlo zhi

Masses

1 28.085
2 15.999

Atoms # full

9112 1 2 0 5.771274636502147 5.076696488688505 -2.0474780368798355 0 0 0
6484 1 1 0 7.261895154087149 4.456647110171665 -1.6387535538508469 0 1 0
9118 1 2 0 8.579816472793416 5.365956368408304 -2.101884716568273 0 0 0
6483 1 1 0 9.750174267251902 6.440858757297284 -1.62684955916967 0 0 0
9119 1 2 0 11.331797003375083 6.302257176409405 -2.0738714702299204 0 0 0
6800 1 1 0 12.91739142791439 6.430705302454016 -1.6337273556494545 0 0 0
9604 1 2 0 13.56484325902657 5.013123952899568 -2.137552236028327 0 0 0
9611 1 2 0 18.788549331282344 6.585798249615265 -2.022415641578084 0 0 0
6808 1 1 0 19.028566253626394 4.998694236051671 -1.6229220817047967 0 0 0
9618 1 2 0 20.495078876042157 4.428408300437756 -2.105788679836155 0 1 0
9627 1 2 0 22.90750102925894 5.3750704786899055 -2.033666159166163 0 0 0
6814 1 1 0 23.762342156142598 6.755110295298871 -1.6254108264240879 0 0 0
9628 1 2 0 25.28779580162429 6.466255937151892 -2.154066091116495 0 0 0
6824 1 1 0 26.77644127662615 6.041112819608669 -1.641641896736013 0 0 0
9644 1 2 0 27.1611030133569 4.5279069370401555 -2.1125799153602554 0 0 0
9642 1 2 0 30.45938803906391 6.606965571543794 -2.0979748095129835 0 0 0
6835 1 1 0 31.476957074780483 5.431781355711316 -1.633946640755441 0 0 0
9658 1 2 0 32.95250691202408 5.7845486502516295 -2.1764239678858943 0 0 0
6832 1 1 0 34.35982131602821 6.325324070013421 -1.6169632933375007 0 0 0
9657 1 2 0 35.61451586661937 5.468385612067743 -2.1536621513247307 0 0 0
6834 1 1 0 36.95636868998617 4.740137536635612 -1.6339845346498933 0 0 0
9659 1 2 0 38.251411005434555 5.583236432705997 -2.0927740842072904 0 0 0
6833 1 1 0 39.349453062923914 6.660229652212416 -1.6119036993322082 0 0 0
9660 1 2 0 40.82464912808114 6.254007353099763 -2.1332519479816106 0 0 0
6838 1 1 0 42.352190102391624 6.0048866231443325 -1.635428119613725 0 0 0
9667 1 2 0 42.67094689825862 4.446773671471013 -2.1010952156309077 0 1 0
6848 1 1 0 48.38063330624036 5.799786438891788 -1.620046866327933 0 0 0
9684 1 2 0 49.96748222733705 6.1492189349028985 -1.9384169017765083 0 0 0
9693 1 2 0 52.672946086612924 6.263971442355457 -2.1261171880098586 0 0 0
6865 1 1 0 54.00736558781994 5.422090512888167 -1.6304054338098233 0 0 0
9701 1 2 0 55.373603565166 6.276471148283821 -2.026573346460249 0 0 0
6860 1 1 0 59.34209011165717 5.406618146817658 -1.6329372676572942 0 0 0
9700 1 2 0 58.04393527527412 6.324873828966736 -2.1322240574826705 0 0 0
9702 1 2 0 60.745820668871126 6.175267297974286 -2.0926583881209937 0 0 0
6866 1 1 0 64.44214912977844 4.8285205104395486 -1.6214552280866918 0 0 0
9704 1 2 0 63.438527300220066 6.036978904100812 -2.070388932550101 0 0 0
9714 1 2 0 66.01571825023164 4.959481001921759 -2.0310335651367106 0 0 0
6927 1 1 0 67.53502905657047 4.539916278432257 -1.6148982365009452 0 0 0
9744 1 2 0 68.60369482327665 5.6235105373373475 -2.178879473031056 0 0 0
6883 1 1 0 69.72632887472227 6.664323384461048 -1.6395644737895023 0 0 0
9735 1 2 0 71.20408364718655 6.14612786982681 -2.0805416051641727 0 0 0
6878 1 1 0 72.7619388138696 6.043164520349302 -1.6329560114754236 0 0 0
9734 1 2 0 73.62590371763662 4.764353367121647 -2.14494136324806 0 0 0
9736 1 2 0 78.17994420491206 5.05658024872772 -2.089012740116933 0 0 0
6879 1 1 0 79.10829506366241 6.305173424523366 -1.6312539651122333 0 0 0
9737 1 2 0 80.62813271536258 6.539907430595953 -2.168723900509373 0 0 0
6895 1 1 0 84.11532139369622 4.799117833701053 -1.6341662755956312 0 0 0
9750 1 2 0 83.2102652105418 6.036083156561957 -2.125759495513763 0 0 0
9762 1 2 0 85.64184715362398 4.992359078667642 -2.1129628327397487 0 0 0
6894 1 1 0 87.07592143836828 5.565125939226735 -1.6254835083261987 0 0 0
9763 1 2 0 88.22790825481277 4.50626217525876 -2.1552084221853596 0 0 0
6897 1 1 0 92.05102270472212 4.8650348340964005 -1.6408584081230393 0 0 0
9765 1 2 0 91.7036079597203 6.451838639351844 -2.073522069260052 0 0 0
6903 1 1 0 97.42433055385479 4.760319016897914 -1.6301556875398984 0 0 0
9775 1 2 0 97.26815920587607 6.312601151377691 -2.154187125556507 0 0 0
9116 1 2 0 9.459225182744728 7.952019522613105 -2.1651125442482417 0 0 0
9601 1 2 0 13.844685793878933 7.730216967663214 -2.0776923197089823 0 0 0
6798 1 1 0 15.12501437157521 8.682236600501748 -1.6220092568111786 0 0 0
9602 1 2 0 16.618244131753848 8.197460716888807 -2.1235423481865987 0 0 0
6804 1 1 0 18.188070005630923 8.07812504010548 -1.635021563427173 0 0 0
9625 1 2 0 23.33579789437393 8.309161376427097 -2.0881412046316488 0 0 0
9641 1 2 0 27.92507315966899 7.102317457216551 -2.1046326404720253 0 0 0
6822 1 1 0 29.361467904435376 7.714548729275146 -1.6352463507123813 0 0 0
9638 1 2 0 29.71915335130411 9.220316749060038 -2.172233626893153 0 0 0
9648 1 2 0 34.46202851820137 7.878349143742697 -2.0305362537777 0 0 0
9650 1 2 0 38.91298933820303 8.147531552785336 -2.0670807451978006 0 0 0
9664 1 2 0 43.099374395128 7.395523035003717 -2.1513440544824234 0 0 0
6836 1 1 0 43.767484653481716 8.83063561513318 -1.640998513866829 0 0 0
9665 1 2 0 45.328456491487415 8.744898535247948 -2.139527981784019 0 0 0
6844 1 1 0 46.887355667175036 8.671506311266503 -1.6226234826430916 0 0 0
9677 1 2 0 47.59188540313974 7.2159649732057245 -2.0935169414402885 0 0 0
6854 1 1 0 51.311475512864384 7.050716905646716 -1.6081820779767642 0 0 0
9691 1 2 0 51.18507666088239 8.635254753756374 -2.0846059486686177 0 0 0
6858 1 1 0 56.708441598204175 7.183929104507772 -1.6290570702318876 0 0 0
9697 1 2 0 56.64224323382074 8.79013901886919 -2.1163042247578123 0 0 0
6859 1 1 0 62.14339314455695 6.947634156738729 -1.6324457473112437 0 0 0
9703 1 2 0 62.43458923677036 8.507156281368783 -2.128826404880753 0 0 0
9741 1 2 0 69.34295234675623 8.162934229216752 -2.153196063969958 0 0 0
9726 1 2 0 73.55816956834515 7.351633936435057 -2.1573550328598845 0 0 0
6873 1 1 0 74.45323638015569 8.577752412340011 -1.6052445142306164 0 0 0
9724 1 2 0 75.9871717807588 8.58795660119163 -2.1004848530709865 0 0 0
6874 1 1 0 77.50337777841712 8.880864819514663 -1.6323389980566512 0 0 0
9728 1 2 0 78.36185182154239 7.629971204691313 -2.152518117452348 0 0 0
6887 1 1 0 82.07027764818079 7.050766611669002 -1.6097889701060641 0 0 0
9747 1 2 0 82.53037274153957 8.574793798302428 -1.9207810948157324 0 0 0
6888 1 1 0 86.61016535648847 8.702400473985268 -1.6277698033066208 0 0 0
9748 1 2 0 85.1342573464331 9.249426011423788 -2.14241069007996 0 0 0
9752 1 2 0 87.05742480282873 7.162761950301893 -2.0203605903540063 0 0 0
9754 1 2 0 90.45329696667432 9.220478185482897 -2.051428785340347 0 0 0
6896 1 1 0 91.62025667309231 8.074702888785433 -1.6332662363824004 0 0 0
9766 1 2 0 93.05728049204369 8.662158856479914 -2.156086671570256 0 0 0
9771 1 2 0 95.77212889385376 8.569888117568707 -2.1024548644983043 0 0 0
6902 1 1 0 97.17285008050827 7.87059671070901 -1.6370066432544008 0 0 0
9776 1 2 0 98.43341439437224 8.794441542593862 -2.1247841395830553 0 0 0
9129 1 2 0 101.1479974910551 8.898838028966434 -2.174142524981318 0 0 0
6474 1 1 0 6.13212018494612 10.290020411100091 -1.5851444238058852 0 0 0
9102 1 2 0 6.706917363019245 11.72315860009562 -2.1658807649938754 0 0 0
6482 1 1 0 9.137966178949668 9.44398238739545 -1.6060211400013387 0 0 0
9103 1 2 0 7.538912381042628 9.532818164165345 -1.9042831063631946 0 0 0
9117 1 2 0 10.147876176374417 10.621079368831245 -2.1458524843465305 0 0 0
6503 1 1 0 11.272597330769752 11.704811532424415 -1.6431043969720112 0 0 0
9149 1 2 0 12.815620978730294 11.551947115939662 -2.148993386365044 0 0 0
6799 1 1 0 14.353014173512577 11.73093544883324 -1.6162233500179795 0 0 0
9600 1 2 0 15.028864023354037 10.283037234005482 -1.9866015467903309 0 0 0
9610 1 2 0 19.074107373194774 9.397164543099102 -2.1373135997706916 0 0 0
6805 1 1 0 20.004340916263935 10.68037195879168 -1.6134853510553238 0 0 0
9613 1 2 0 21.570766750626586 10.358734236461782 -2.0094969015353197 0 0 0
6813 1 1 0 23.10718363218914 9.904605602829244 -1.6177437297669353 0 0 0
9626 1 2 0 24.097421752187138 11.162290289656378 -2.1267488490163555 0 0 0
6821 1 1 0 30.060516680811368 10.732470358102619 -1.6351738267700935 0 0 0
9640 1 2 0 31.535498936161712 11.26926210923112 -2.080490233972581 0 0 0
6828 1 1 0 33.05435868699538 11.643140967821813 -1.6272727706428516 0 0 0
6826 1 1 0 35.04134595990404 9.325061310729527 -1.625460033204204 0 0 0
9647 1 2 0 34.062882543469684 10.492714079716109 -2.174763322018945 0 0 0
9646 1 2 0 36.56295749109346 9.43818336333706 -2.1686668482735776 0 0 0
6827 1 1 0 38.09206592645203 9.469649882624795 -1.630661814355893 0 0 0
9649 1 2 0 38.8414430185199 10.801225422874769 -2.1576004814176715 0 0 0
9663 1 2 0 43.09512557941375 10.29566635513749 -2.067955354100592 0 0 0
9676 1 2 0 47.48094877872084 10.190846239840898 -2.0129849969170066 0 0 0
9679 1 2 0 49.82790071594077 11.09696655251825 -2.04558852678935 0 0 0
6845 1 1 0 48.30963344404282 11.59791678502577 -1.6234249002503425 0 0 0
6853 1 1 0 51.16660932785129 10.228872605428405 -1.626466798459321 0 0 0
9692 1 2 0 52.47090051997035 11.082831834740157 -2.1546088925581706 0 0 0
9699 1 2 0 55.108500127466236 11.119389528319717 -2.020775043739049 0 0 0
6857 1 1 0 56.530794763952535 10.388032531394582 -1.6138776346492725 0 0 0
9698 1 2 0 57.67216586900601 11.507808289820582 -2.0584861096727822 0 0 0
9708 1 2 0 62.04634035155457 11.234057803495604 -1.955680404122539 0 0 0
6862 1 1 0 63.032585991945105 9.968390256824474 -1.620076641864414 0 0 0
9709 1 2 0 64.53889811763214 10.385425512268828 -2.149306384932426 0 0 0
6924 1 1 0 66.00456469989206 10.923032824329992 -1.6260119525321775 0 0 0
9743 1 2 0 67.25963943970383 9.980763719416297 -2.076495836404049 0 0 0
6882 1 1 0 68.78209179637913 9.60176599197054 -1.6305192820656715 0 0 0
9742 1 2 0 69.76320864460011 10.814550027285323 -2.100565805868299 0 0 0
9725 1 2 0 73.84760301790006 10.003388416985256 -2.034644561331061 0 0 0
6875 1 1 0 73.69933443434738 11.556215397320551 -1.624858372037836 0 0 0
9727 1 2 0 78.15624346693792 10.26246494878129 -2.1706731444108374 0 0 0
6876 1 1 0 78.77722923037463 11.659563040334774 -1.6147536302986516 0 0 0
9746 1 2 0 82.92877308720117 11.117674087228705 -2.1294982081417264 0 0 0
6885 1 1 0 83.6433077019418 9.728810985060033 -1.6110105306714835 0 0 0
9751 1 2 0 87.84284867463317 9.654818690659315 -2.1284265385273002 0 0 0
6889 1 1 0 89.25368690347561 10.336817607161057 -1.6415544128460675 0 0 0
6899 1 1 0 94.43029850644521 9.372221063228086 -1.6390557373052377 0 0 0
9770 1 2 0 94.39786359931995 10.918828474665366 -2.148957650507136 0 0 0
6906 1 1 0 99.77736564620749 9.580201401994378 -1.636585417409185 0 0 0
9781 1 2 0 99.94663244874646 11.121366850543172 -2.118830909190821 0 0 0
6476 1 1 0 7.3473564019488755 13.149241000522803 -1.6569599589787767 0 0 0
9106 1 2 0 6.181226584665077 14.134006713444483 -2.156620949058045 0 0 0
9107 1 2 0 8.699803078076748 13.95883260242694 -2.143890525449982 0 0 0
9147 1 2 0 10.957704252575878 13.24130636203566 -2.0368873010212267 0 0 0
9603 1 2 0 15.094053189380519 13.135994602546651 -2.08934226002642 0 0 0
6806 1 1 0 19.11109906456342 13.773358760011922 -1.6329129920539487 0 0 0
9614 1 2 0 17.576349327277065 14.099254925727278 -2.1534556772571154 0 0 0
9612 1 2 0 19.595180398796717 12.235427947173012 -2.0681727614446395 0 0 0
6818 1 1 0 24.892462630529387 12.549971766844314 -1.6256043742861428 0 0 0
9634 1 2 0 26.460319660123627 12.689502370391391 -2.1056096100805664 0 0 0
9633 1 2 0 24.24266774265019 14.02501149675092 -2.0074847281632366 0 0 0
6823 1 1 0 27.99037820209348 13.038007492746575 -1.6194558005245625 0 0 0
9639 1 2 0 28.980367576020363 11.845874783408906 -2.1451637204753515 0 0 0
9651 1 2 0 33.60639303369393 13.097830888581532 -2.1197206869242535 0 0 0
9652 1 2 0 38.47587185609122 13.383896367416574 -2.080964494395605 0 0 0
6829 1 1 0 39.50187084110776 12.187316514543685 -1.6322706025898384 0 0 0
9653 1 2 0 41.06920377949081 12.18738824623138 -2.1271233048849933 0 0 0
6837 1 1 0 42.6036609242431 11.82983986189676 -1.6286354343786629 0 0 0
9666 1 2 0 43.557572791087026 13.12424112573443 -2.038919217995301 0 0 0
9678 1 2 0 47.863855803189196 13.180452974551486 -2.1123475704847006 0 0 0
6864 1 1 0 53.75226521343714 11.968864747163375 -1.6279039301518996 0 0 0
9711 1 2 0 53.69259661269872 13.548322437958374 -2.1288683265186754 0 0 0
6861 1 1 0 58.436760433551036 12.916034020356904 -1.6430814506007048 0 0 0
9706 1 2 0 60.00247996533945 12.919891790913715 -2.150480245935154 0 0 0
6863 1 1 0 61.54669598876459 12.757823612339278 -1.6103962696973517 0 0 0
9710 1 2 0 62.584944429073985 13.929259018175426 -2.117430447989886 0 0 0
9805 1 2 0 66.4291728381009 12.457681482517264 -2.0304915109897776 0 0 0
6925 1 1 0 66.57058554947402 14.03889235806158 -1.6153400024888462 0 0 0
6884 1 1 0 70.69679697493063 12.059247913034474 -1.6266892519257798 0 0 0
9745 1 2 0 70.17960165162623 13.515294020168872 -2.117633756424645 0 0 0
9730 1 2 0 72.2204284348328 11.93130140493293 -2.169346454480151 0 0 0
9729 1 2 0 74.93748300715306 12.465991587448007 -2.1604198990439722 0 0 0
6877 1 1 0 76.18406795859889 13.367587023462908 -1.6219316062482203 0 0 0
9731 1 2 0 77.65871476446404 12.780096364916663 -1.984854497194603 0 0 0
9732 1 2 0 80.3029245594995 11.95604437412455 -2.12455171038621 0 0 0
6886 1 1 0 81.84466653129937 12.258431328809225 -1.649247591339894 0 0 0
9749 1 2 0 82.25812178858898 13.771416005720592 -2.1105368318375337 0 0 0
6890 1 1 0 89.10000685202277 13.576655679969088 -1.5938125831242027 0 0 0
9753 1 2 0 89.13100388272737 11.957311606323804 -2.1061475363288187 0 0 0
9756 1 2 0 90.6609024771586 13.845336633042326 -1.9829032708052108 0 0 0
9772 1 2 0 93.2433057000651 13.444334233480689 -2.167250955252272 0 0 0
6900 1 1 0 94.42645443198428 12.460063075903731 -1.6325843020048638 0 0 0
9773 1 2 0 95.82851247772882 13.102184015103 -2.107651676893406 0 0 0
9782 1 2 0 98.48943091625377 13.195076763140001 -2.167356821621633 0 0 0
6908 1 1 0 97.1448270631125 13.893448949325961 -1.6359637681050252 0 0 0
6907 1 1 0 99.91259238043888 12.664821366299263 -1.631460804472683 0 0 0
9191 1 2 0 101.07454349007983 13.677968901340424 -2.1429135960333974 0 0 0
6478 1 1 0 5.322661095382938 15.356249816833932 -1.5947437463523548 0 0 0
6502 1 1 0 10.138188886826486 14.5709598427988 -1.60178618647903 0 0 0
9148 1 2 0 11.015511890856502 15.863889324154991 -2.12212825726551 0 0 0
6807 1 1 0 16.042300938322146 14.41978522400738 -1.6285620340050284 0 0 0
9616 1 2 0 15.550477494989876 15.957924352387714 -2.03732850129883 0 0 0
9615 1 2 0 20.056654443654462 15.06913235330083 -2.0778819644453583 0 0 0
6820 1 1 0 20.976633609077616 16.385476265989524 -1.6383673371678447 0 0 0
6819 1 1 0 24.011286082398367 15.619084735312317 -1.6166881994882452 0 0 0
9635 1 2 0 22.521525376580357 16.095048030369394 -2.1483974742103666 0 0 0
9643 1 2 0 28.555370346249404 14.526763295574073 -2.041482874110801 0 0 0
6914 1 1 0 29.034478742222365 16.05226643031728 -1.6284259025584518 0 0 0
9792 1 2 0 30.588389197686023 16.384213070259083 -2.1401586276017857 0 0 0
9655 1 2 0 33.32925447204213 15.707310122920774 -2.018566356187767 0 0 0
6830 1 1 0 34.3460001674599 14.471821236850738 -1.6199970103635768 0 0 0
9654 1 2 0 35.923479568993955 14.579399426095456 -2.1316956296099296 0 0 0
6831 1 1 0 37.50694194119945 14.633071420265074 -1.6358581827857994 0 0 0
9656 1 2 0 38.33981227054029 15.951814694598236 -2.150341624479724 0 0 0
9681 1 2 0 43.083480967932 15.90371446371821 -2.1246510242540237 0 0 0
6846 1 1 0 44.079288172892745 14.646573344811909 -1.6181024758085787 0 0 0
9680 1 2 0 45.69400668498989 14.85351470534365 -1.9786934377788987 0 0 0
6847 1 1 0 47.32515584283193 14.74072425029482 -1.6198878727608212 0 0 0
9682 1 2 0 48.080994882551686 16.239063340297776 -2.034362791506947 0 0 0
9798 1 2 0 52.7009821591125 16.277109254341216 -2.015595613500257 0 0 0
6919 1 1 0 53.80993256080865 15.116293597864244 -1.5999686157331734 0 0 0
9799 1 2 0 55.32160531603905 15.641646857580856 -1.945313221665815 0 0 0
6922 1 1 0 56.92084772375128 15.67027612349057 -1.5978644887491507 0 0 0
9707 1 2 0 57.677332146112875 14.301678758214548 -2.128873979204169 0 0 0
6926 1 1 0 63.64956339746327 15.088322200630143 -1.6435225196348706 0 0 0
9808 1 2 0 63.272452047077365 16.60247693992999 -2.1457179492425107 0 0 0
9806 1 2 0 65.18129364358826 14.746714050239742 -2.1075253919677674 0 0 0
9807 1 2 0 67.97586977035135 14.78866736893696 -2.042568428840143 0 0 0
6928 1 1 0 69.56372986260014 14.939386212654973 -1.6315029742608111 0 0 0
9810 1 2 0 70.46291615581968 16.221243437502952 -2.159221820059758 0 0 0
9733 1 2 0 76.14484315381239 14.907925887739399 -2.1321093809675333 0 0 0
6931 1 1 0 76.56239564115623 16.40226402537784 -1.642551876859742 0 0 0
9758 1 2 0 80.82303190475638 16.022313775533195 -2.0215447800831985 0 0 0
6891 1 1 0 82.25666661912125 15.333270009795909 -1.6164316607556903 0 0 0
9757 1 2 0 83.55603458047615 16.20598919278192 -2.1127591874529186 0 0 0
9755 1 2 0 88.37975056545663 15.030395634941243 -2.093531762699091 0 0 0
6892 1 1 0 87.79593259268391 16.553476725855454 -1.6436803748780608 0 0 0
6901 1 1 0 92.1049002502506 14.46811315092867 -1.6090578459418416 0 0 0
9774 1 2 0 92.17029977236774 16.00609139588457 -2.1433667899551465 0 0 0
9783 1 2 0 97.20222783086672 15.409131396978491 -2.1786849519208378 0 0 0
6528 1 1 0 6.417643781240685 18.245243957457024 -1.5878106450279252 0 0 0
9110 1 2 0 6.232114110556525 16.662328143933305 -1.8793682671533958 0 0 0
9186 1 2 0 7.878639488495587 18.719730187342723 -2.1602578492033526 0 0 0
6547 1 1 0 11.78325181733248 17.247073340751648 -1.6469802998301364 0 0 0
9214 1 2 0 10.684257831572914 18.374541734311553 -2.1147732014064893 0 0 0
9216 1 2 0 13.362394909116743 17.480987583460173 -2.1309614967091424 0 0 0
6913 1 1 0 14.963325239313432 17.468232774123067 -1.629954079318958 0 0 0
9790 1 2 0 15.950134862573549 18.770337879089162 -2.080842390307243 0 0 0
9637 1 2 0 20.474595542989416 17.915360364263503 -2.08173087827001 0 0 0
9636 1 2 0 25.191087520712784 16.701495497557623 -2.052740657059529 0 0 0
6915 1 1 0 26.380776184536572 17.784676278860342 -1.6334980925001947 0 0 0
9791 1 2 0 27.84286040710413 17.122410571781373 -2.071775740561558 0 0 0
6916 1 1 0 32.12717677518328 16.76903480938353 -1.6233064715644567 0 0 0
9794 1 2 0 32.63726784542654 18.262362359154096 -2.1027578455970066 0 0 0
9796 1 2 0 37.774160095474684 18.407636571549688 -2.103580728970986 0 0 0
6917 1 1 0 39.01261340522059 17.364930258832224 -1.6393927309882765 0 0 0
9795 1 2 0 40.64888737335372 17.499654135177153 -2.042375560443314 0 0 0
6918 1 1 0 42.276339977821955 17.294272495945098 -1.6234461951081496 0 0 0
9797 1 2 0 43.274973048473896 18.579847700744384 -1.9796714091847376 0 0 0
6920 1 1 0 48.789757122675226 17.766807420161516 -1.6349584908019619 0 0 0
9800 1 2 0 50.42431311867462 17.85689380351088 -2.107735975312568 0 0 0
6921 1 1 0 52.04937778612731 17.755866243262034 -1.6268694711057339 0 0 0
9802 1 2 0 53.203749149585185 18.90649230909916 -2.0585030379336553 0 0 0
9803 1 2 0 57.49696040063506 17.1494055363768 -2.032756325419859 0 0 0
6963 1 1 0 57.53761862792254 18.74717874496186 -1.6263012895694575 0 0 0
9864 1 2 0 61.88292676367946 18.94376806129384 -2.096064255813725 0 0 0
6964 1 1 0 63.28063984716009 18.166366469829416 -1.645661292028911 0 0 0
9865 1 2 0 64.7505701566032 18.795648834710075 -2.0893365184251818 0 0 0
6969 1 1 0 71.17759897218986 17.623487975237982 -1.640331205952234 0 0 0
9872 1 2 0 70.12473701286983 18.788284163325013 -2.112190490503307 0 0 0
9871 1 2 0 72.72949285529764 17.987904738488986 -2.102606195231705 0 0 0
6970 1 1 0 74.24091833299333 18.48742224031934 -1.6254699439975824 0 0 0
9815 1 2 0 75.44947369518125 17.495391451926377 -2.138029127797718 0 0 0
9814 1 2 0 78.11050492687271 16.653754538707606 -2.1142243898663127 0 0 0
6932 1 1 0 79.61827818898095 17.05895317731336 -1.6233928044866024 0 0 0
9816 1 2 0 79.93041662178533 18.572504114868142 -2.1591831910934878 0 0 0
9761 1 2 0 84.34337636298265 18.784308474359097 -2.0612732312246584 0 0 0
6893 1 1 0 84.73866879793891 17.24247349625289 -1.6342654038025568 0 0 0
9759 1 2 0 86.23702013103983 16.78172843778343 -2.1493668604548857 0 0 0
9760 1 2 0 88.53969358534782 18.006348738609965 -2.049160377235931 0 0 0
9877 1 2 0 90.86147521089514 18.418334346444226 -2.0765294536992833 0 0 0
6973 1 1 0 92.14647784213689 17.55260712076552 -1.6326909437880022 0 0 0
9878 1 2 0 93.43498907588265 18.387765733567765 -2.1467501493316363 0 0 0
9883 1 2 0 95.81363379432302 17.54169101851133 -1.8280018433847254 0 0 0
6978 1 1 0 94.87656433604944 18.826560084896418 -1.5749001434199974 0 0 0
6977 1 1 0 97.26668316478565 16.900021537630476 -1.5812110181097359 0 0 0
9271 1 2 0 98.49343943554305 17.828244796138645 -2.070561555737585 0 0 0
9190 1 2 0 100.91398584612344 18.755899355307744 -2.128931296752596 0 0 0
6546 1 1 0 9.361472124597622 19.222003103130984 -1.6561787084367474 0 0 0
9215 1 2 0 9.531564972153113 20.754815241816747 -2.168321244658087 0 0 0
6942 1 1 0 16.940032454856837 20.07247731025343 -1.6233825866325522 0 0 0
9830 1 2 0 18.571998250446054 19.8732502556504 -1.9793808765790437 0 0 0
6943 1 1 0 20.16956171045707 19.49741708847618 -1.6173680125977399 0 0 0
9832 1 2 0 21.340761322900722 20.641690606565046 -2.0743203086162354 0 0 0
9887 1 2 0 24.11025066255694 21.29356885494139 -2.020786180416255 0 0 0
9793 1 2 0 26.092871021326896 19.364815828437976 -2.1249028463591966 0 0 0
6981 1 1 0 25.69895020378646 20.923470559900657 -1.6239247201380973 0 0 0
6950 1 1 0 33.311986567305055 19.699984087672238 -1.6417315712742342 0 0 0
9843 1 2 0 32.19086043744731 20.90654024528991 -2.1108568208046505 0 0 0
9842 1 2 0 34.965850945634664 19.6329138771691 -2.0426728026616265 0 0 0
6951 1 1 0 36.607457560731596 19.529279321815462 -1.6287071299162097 0 0 0
9844 1 2 0 37.43313898967404 20.855585638406986 -2.121759648942753 0 0 0
9847 1 2 0 42.675330858879335 21.09111632725973 -2.122019013613376 0 0 0
6953 1 1 0 43.885886931854984 20.080661680337553 -1.6075883493972285 0 0 0
9846 1 2 0 45.47723227353971 20.423579073889037 -2.0448548908038955 0 0 0
9801 1 2 0 47.968487994666795 19.243176459510988 -2.000870897754389 0 0 0
6954 1 1 0 47.09500004746654 20.695201488711728 -1.6301817557599763 0 0 0
6987 1 1 0 54.50880452130954 19.877823547463688 -1.6312961728027586 0 0 0
9896 1 2 0 54.299243470678476 21.44243556421937 -2.144692971081093 0 0 0
9863 1 2 0 56.05299760717174 19.390603874825043 -2.067414077587733 0 0 0
9862 1 2 0 59.0153921640352 19.366440957671045 -2.1307121458930807 0 0 0
6965 1 1 0 60.54919420061608 19.825369362400636 -1.6248624131887188 0 0 0
9866 1 2 0 60.86744151162493 21.396162822295693 -2.0227133921581184 0 0 0
6988 1 1 0 65.9849779823746 19.792140388639737 -1.598379930461629 0 0 0
9897 1 2 0 65.18605995033079 21.162420835134114 -1.9681690280987763 0 0 0
6991 1 1 0 69.13249474786973 19.991936074468377 -1.611863893338863 0 0 0
9898 1 2 0 67.55806476622257 19.857406521107496 -2.1374730337653833 0 0 0
9902 1 2 0 69.97600516361612 21.368893950934602 -1.93785734575659 0 0 0
9873 1 2 0 74.67783139927703 20.022605959320558 -2.0553355227028627 0 0 0
6995 1 1 0 75.31896708045258 21.479549308669732 -1.6068644268706587 0 0 0
9906 1 2 0 79.48160798445512 21.298152991437814 -2.124651020582124 0 0 0
6994 1 1 0 80.4156047528154 20.040644172095053 -1.6249707036254402 0 0 0
9907 1 2 0 81.98654935301835 20.16531174970587 -2.0508873414276283 0 0 0
6997 1 1 0 83.56231941126893 20.163763366431528 -1.6170152164310105 0 0 0
6974 1 1 0 89.5598396546436 19.274924585167096 -1.6004424801395765 0 0 0
9879 1 2 0 89.88442983860047 20.84770403373302 -2.1185516251043017 0 0 0
9273 1 2 0 95.76303536382662 20.067802575448624 -2.096242926472942 0 0 0
9270 1 2 0 98.45589790731279 20.3522125334424 -2.05292395672053 0 0 0
6584 1 1 0 97.01635836893043 20.989632851697067 -1.6388603983479455 0 0 0
6583 1 1 0 99.40534676695862 19.09803596027377 -1.625438586169838 0 0 0
9243 1 2 0 5.393759950664657 23.650021675427915 -2.1607981138586547 0 0 0
6568 1 1 0 9.380526648340586 22.26728890410303 -1.6110055728720072 0 0 0
9245 1 2 0 7.959951427362348 22.919358660252055 -2.032313748255177 0 0 0
9247 1 2 0 10.529917020337225 23.333890806299134 -2.007907868929122 0 0 0
9831 1 2 0 16.452500261153734 21.627239333866367 -2.082246076448732 0 0 0
6979 1 1 0 16.325148465394435 23.240123883140406 -1.6011898487347147 0 0 0
6982 1 1 0 22.54193777193734 21.755148427042826 -1.6332337127805765 0 0 0
9889 1 2 0 22.254618698745535 23.348533125217248 -2.114712871875752 0 0 0
9888 1 2 0 26.805807750656598 22.11947455084156 -2.0468988051916246 0 0 0
6984 1 1 0 27.97436427726315 23.259784107700938 -1.6241780907627255 0 0 0
9890 1 2 0 29.531558846879886 22.63505553721615 -2.0632116495754342 0 0 0
6983 1 1 0 31.13604986161548 22.175786990733066 -1.6299038740124259 0 0 0
9891 1 2 0 32.03605602101444 23.468706039140045 -2.0808877015414153 0 0 0
6985 1 1 0 38.33660583663199 22.125727936912625 -1.6335539140772903 0 0 0
9894 1 2 0 37.38196998265582 23.372642721414962 -2.144176216227077 0 0 0
9893 1 2 0 39.91841192942035 21.966663408713174 -2.0852714932600414 0 0 0
6986 1 1 0 41.49984933492971 22.141357664166282 -1.6361622908781048 0 0 0
9895 1 2 0 41.95490928153767 23.609242074770016 -2.160278370854485 0 0 0
9848 1 2 0 47.59841782459982 22.319689609496464 -2.0604440587337307 0 0 0
7021 1 1 0 48.24553520062293 23.88853539744993 -1.6178577038072477 0 0 0
9946 1 2 0 49.85980704162446 23.793652146088288 -1.9878048617123767 0 0 0
9956 1 2 0 52.74858388531478 23.683629613071922 -2.1413775654747154 0 0 0
7028 1 1 0 54.18915062102732 23.016998838198443 -1.6462283949086625 0 0 0
9957 1 2 0 55.55777691941375 23.859840759146035 -2.0647923931561936 0 0 0
6989 1 1 0 61.59008733322731 22.82531958464281 -1.6304914567733935 0 0 0
9899 1 2 0 63.16981968993093 22.90466602045514 -2.09281971455204 0 0 0
6990 1 1 0 64.71641437934215 22.667874865344473 -1.586927406303858 0 0 0
9901 1 2 0 66.03330533929265 23.474196033387354 -2.1330948262552205 0 0 0
9972 1 2 0 68.88767141809188 23.647277798928894 -2.1331671523459073 0 0 0
7038 1 1 0 70.28203836781192 22.95071371676102 -1.60926088789561 0 0 0
9971 1 2 0 71.74579281462205 23.55414502200106 -2.126262324033264 0 0 0
9909 1 2 0 74.27556394732083 22.676403880610017 -2.0201229049448295 0 0 0
7039 1 1 0 73.2922758933408 23.929662174779892 -1.620127686906349 0 0 0
9908 1 2 0 76.83930160140117 21.88753510350948 -2.129411206712991 0 0 0
6996 1 1 0 78.3402923711836 22.382967436318783 -1.6301299089035328 0 0 0
9910 1 2 0 78.71243631136497 23.949871279933618 -2.01711459531088 0 0 0
9911 1 2 0 84.1531120549546 21.604648605772965 -2.153255711239482 0 0 0
7044 1 1 0 84.54118842445362 23.119039513216148 -1.6299183011654914 0 0 0
9980 1 2 0 86.07567453460983 23.48017547084994 -2.099534436244912 0 0 0
9978 1 2 0 88.88899487739214 23.31903100616077 -2.133225188288446 0 0 0
7043 1 1 0 90.2128227482498 22.43570121089437 -1.6522861299555611 0 0 0
9979 1 2 0 91.67990757167385 23.181364812199536 -2.0607612042048835 0 0 0
6585 1 1 0 96.13934215361287 23.898016842798793 -1.6393096127161904 0 0 0
9272 1 2 0 96.61284033632188 22.44369798973584 -2.202316341682579 0 0 0
6567 1 1 0 6.871495319088414 24.036768898116716 -1.6020117648171857 0 0 0
9246 1 2 0 7.39370247877098 25.554585965176 -1.9062594784902986 0 0 0
6614 1 1 0 11.075053113181594 24.81209119695346 -1.627518647314866 0 0 0
9314 1 2 0 9.9969211355191 25.9513258435732 -2.0766336016636227 0 0 0
9318 1 2 0 12.580386248948228 25.047904663332552 -2.18293717213346 0 0 0
6980 1 1 0 14.058013099851836 25.488459955891393 -1.649510048236863 0 0 0
9884 1 2 0 15.157604581084662 24.324022318238374 -2.1153268330454367 0 0 0
9885 1 2 0 17.721824487109274 24.071959634612757 -1.8932653870583003 0 0 0
7012 1 1 0 18.656375436500493 25.39959068518844 -1.6062869934307018 0 0 0
9933 1 2 0 20.21814843690813 25.13745834850517 -2.067742089669555 0 0 0
7011 1 1 0 21.79390369459654 24.89513333399126 -1.6293061423681552 0 0 0
9934 1 2 0 22.68501567902967 26.257724824650733 -2.0499392665867293 0 0 0
9892 1 2 0 27.404814825129982 24.859303323627334 -1.9877373993127163 0 0 0
7017 1 1 0 33.08299052228495 24.632326433849716 -1.6355409659422127 0 0 0
9941 1 2 0 32.510900223897984 26.086187592616938 -2.155904996118879 0 0 0
9940 1 2 0 34.612136544890156 24.23643344934916 -2.0875730474080454 0 0 0
7018 1 1 0 36.18136548490453 24.367826413262637 -1.617492291886461 0 0 0
9942 1 2 0 36.51101281404161 25.888636365375685 -2.060471997421411 0 0 0
9948 1 2 0 40.73332087987325 25.90552625742555 -1.8703488749250423 0 0 0
7022 1 1 0 42.13272459573881 25.113962574547124 -1.6041063475135908 0 0 0
9947 1 2 0 43.526076910831435 25.809230917346195 -2.083039584351037 0 0 0
9945 1 2 0 48.00114884085275 25.571995823366372 -2.0443668573306333 0 0 0
7029 1 1 0 51.34488988690882 24.402672685543006 -1.6229277919445082 0 0 0
9958 1 2 0 51.35607539024365 25.986617101139366 -2.0203129003506572 0 0 0
7034 1 1 0 56.68997014738825 24.979871474015965 -1.6028722138295792 0 0 0
9965 1 2 0 58.263097411975245 25.043883782796446 -2.1119680005416086 0 0 0
7035 1 1 0 59.811554728377814 25.40740702241583 -1.6562559809116555 0 0 0
9900 1 2 0 60.75965862539205 24.15094511363752 -2.157402407009692 0 0 0
7061 1 1 0 67.42159970540126 24.19031334758086 -1.6438228560840582 0 0 0
10005 1 2 0 67.2031865747668 25.693174727152005 -2.193235172519805 0 0 0
9973 1 2 0 74.02127623643719 25.34900949099575 -2.0951250944076176 0 0 0
7066 1 1 0 79.44130562286651 25.386004799344356 -1.627649978838072 0 0 0
10013 1 2 0 81.00780441929732 25.47877342230797 -2.1524240162163757 0 0 0
9981 1 2 0 83.45638202248351 24.285619343001205 -2.0554429683216004 0 0 0
7067 1 1 0 82.5722826513023 25.61221069276148 -1.6309678877897373 0 0 0
7045 1 1 0 87.52423639541311 24.11127394319828 -1.6322385394163346 0 0 0
9982 1 2 0 87.54950503464205 25.688126096628334 -2.0970945300674257 0 0 0