ITEM: TIMESTEP
1525
ITEM: NUMBER OF ATOMS
15360
ITEM: BOX BOUNDS pp pp pp
0.0000000000000000e+00 2.0384082581626231e+02
0.0000000000000000e+00 1.7533473154402409e+02
-1.0000000000000000e+02 1.0000000000000000e+02
ITEM: ATOMS id type element x y z v_uncoordination
1 1 Si 111.572 46.8906 1.63462 0
2 1 Si 113.631 44.3362 1.62922 0
3 1 Si 108.233 46.4557 1.63539 0
4 1 Si 107.715 40.0047 1.62782 0
5 1 Si 110.766 39.0539 1.62628 0
6 1 Si 106.962 43.2825 1.61358 0
7 1 Si 113.219 41.175 1.61865 0
8 1 Si 113.512 49.593 1.62614 0
9 1 Si 116.729 45.2108 1.63521 0
10 1 Si 116.565 48.3881 1.62958 0
11 1 Si 105.989 49.079 1.62363 0
12 1 Si 106.774 52.3681 1.62808 0
13 1 Si 112.996 52.9305 1.64248 0
14 1 Si 109.699 54.0175 1.62542 0
15 1 Si 107.081 4.18973 1.63548 0
16 1 Si 110.456 4.03866 1.61252 0
17 1 Si 104.935 6.90384 1.62849 0
18 1 Si 112.451 6.6226 1.62954 0
19 1 Si 104.635 10.3196 1.59503 0
20 1 Si 111.068 9.48558 1.61926 0
21 1 Si 109.086 11.9146 1.6306 0
22 1 Si 106.232 13.1344 1.61183 0
23 1 Si 105.872 1.05045 1.63464 0
24 1 Si 112.293 1.23128 1.62156 0
25 1 Si 107.414 173.45 1.62379 0
26 1 Si 110.68 173.689 1.63322 0
27 1 Si 101.807 6.11291 1.61579 0
28 1 Si 100.712 3.19302 1.60867 0
29 1 Si 102.719 0.798577 1.58781 0
30 1 Si 117.552 3.88363 1.64776 0
31 1 Si 115.792 6.5694 1.62776 0
32 1 Si 115.645 1.172 1.64859 0
33 1 Si 120.874 4.26495 1.63039 0
34 1 Si 123.067 6.7995 1.63189 0
35 1 Si 117.877 9.09548 1.62865 0
36 1 Si 121.157 9.38791 1.63487 0
37 1 Si 122.289 1.45374 1.6352 0
38 1 Si 120.514 174.051 1.6281 0
39 1 Si 117.272 173.649 1.64114 0
40 1 Si 125.467 1.6529 1.61337 0
41 1 Si 127.717 4.05484 1.63783 0
42 1 Si 126.482 7.04183 1.62424 0
43 1 Si 125.078 173.778 1.61866 0
44 1 Si 130.864 3.33478 1.63649 0
45 1 Si 129.939 0.27766 1.65151 0
46 1 Si 128.031 173.027 1.64712 0
47 1 Si 122.622 171.694 1.62389 0
48 1 Si 133.935 4.62706 1.62263 0
49 1 Si 136.469 6.9105 1.62972 0
50 1 Si 128.456 9.81478 1.62662 0
51 1 Si 135.591 10.0482 1.61996 0
52 1 Si 132.042 10.506 1.60427 0
53 1 Si 136.06 2.37195 1.62015 0
54 1 Si 136.901 174.762 1.62554 0
55 1 Si 132.028 173.48 1.59699 0
56 1 Si 134.892 172.598 1.61995 0
57 1 Si 139.064 3.0185 1.60635 0
58 1 Si 139.774 6.07801 1.60552 0
59 1 Si 140.763 0.406439 1.62792 0
60 1 Si 139.425 172.959 1.62575 0
61 1 Si 144.843 3.61627 1.61385 0
62 1 Si 143.118 6.41445 1.62282 0
63 1 Si 143.866 0.584613 1.63859 0
64 1 Si 148.005 3.96301 1.62365 0
65 1 Si 148.542 7.17762 1.60878 0
66 1 Si 145.53 8.78252 1.62448 0
67 1 Si 150.146 1.53558 1.62174 0
68 1 Si 150.346 173.687 1.62687 0
69 1 Si 147.995 171.734 1.62292 0
70 1 Si 145.147 173.04 1.62109 0
71 1 Si 153.335 1.83736 1.64146 0
72 1 Si 154.119 4.98624 1.62453 0
73 1 Si 151.886 7.6539 1.62938 0
74 1 Si 154.947 174.311 1.60919 0
75 1 Si 152.978 171.888 1.62378 0
76 1 Si 159.369 2.046 1.63098 0
77 1 Si 157.442 4.87015 1.6541 0
78 1 Si 159.715 174.021 1.62956 0
79 1 Si 157.317 171.988 1.6219 0
80 1 Si 162.513 2.49075 1.62303 0
81 1 Si 164.124 5.33609 1.63166 0
82 1 Si 158.695 7.96009 1.62493 0
83 1 Si 162.12 8.02482 1.62498 0
84 1 Si 163.879 174.955 1.62271 0
85 1 Si 162.387 172.145 1.59546 0
86 1 Si 168.638 1.87245 1.61151 0
87 1 Si 167.435 4.92182 1.62356 0
88 1 Si 166.944 174.471 1.6286 0
89 1 Si 171.887 1.60307 1.60962 0
90 1 Si 172.931 4.8891 1.61976 0
91 1 Si 170.165 6.78351 1.61661 0
92 1 Si 172.582 173.471 1.62649 0
93 1 Si 170.358 170.611 1.62336 0
94 1 Si 167.119 171.18 1.62427 0
95 1 Si 179.796 2.11483 1.62735 0
96 1 Si 178.88 5.16138 1.62537 0
97 1 Si 178.633 174.406 1.61768 0
98 1 Si 175.94 6.43236 1.61723 0
99 1 Si 175.82 172.633 1.61275 0
100 1 Si 182.941 2.68501 1.6115 0
101 1 Si 184.14 5.60678 1.6134 0
102 1 Si 181.385 7.26597 1.62331 0
103 1 Si 185.209 0.540294 1.63084 0
104 1 Si 181.072 172.255 1.61041 0
105 1 Si 184.251 172.878 1.63436 0
106 1 Si 187.342 4.98228 1.63246 0
107 1 Si 188.166 1.7595 1.61591 0
108 1 Si 192.669 6.25845 1.6198 0
109 1 Si 189.479 7.38704 1.62302 0
110 1 Si 194.001 9.14726 1.62573 0
111 1 Si 188.618 10.6822 1.61563 0
112 1 Si 191.774 11.4894 1.61599 0
113 1 Si 194.799 3.62203 1.6456 0
114 1 Si 193.848 0.392844 1.62207 0
115 1 Si 190.637 174.861 1.63232 0
116 1 Si 198.127 4.16174 1.629 0
117 1 Si 199.406 7.19537 1.64061 0
118 1 Si 197.177 9.51609 1.64812 0
119 1 Si 200.332 1.74787 1.64411 0
120 1 Si 196.056 173.156 1.6332 0
121 1 Si 199.258 173.952 1.64238 0
122 1 Si 0.854714 5.65665 1.64307 0
123 1 Si 202.579 8.11129 1.64195 0
124 1 Si 203.52 2.59181 1.6349 0
125 1 Si 4.04101 6.38303 1.64133 0
126 1 Si 203.694 11.2496 1.6423 0
127 1 Si 3.09184 12.0178 1.62495 0
128 1 Si 5.16245 9.45104 1.63527 0
129 1 Si 6.10466 3.9055 1.62982 0
130 1 Si 4.96962 0.88815 1.64681 0
131 1 Si 1.82749 0.188907 1.63748 0
132 1 Si 102.442 12.9232 1.61507 0
133 1 Si 99.551 8.28632 1.61972 0
134 1 Si 99.7535 11.4392 1.63325 0
135 1 Si 113.216 11.7429 1.61959 0
136 1 Si 116.316 11.8299 1.62976 0
137 1 Si 122.751 12.2233 1.64589 0
138 1 Si 126.061 12.2078 1.6266 0
139 1 Si 138.195 12.5278 1.61792 0
140 1 Si 145.272 12.2039 1.62409 0
141 1 Si 142.064 13.5723 1.62684 0
142 1 Si 153.174 10.7776 1.61936 0
143 1 Si 156.583 10.7077 1.6454 0
144 1 Si 170.192 10.075 1.63667 0
145 1 Si 163.6 10.9504 1.63534 0
146 1 Si 166.93 11.5538 1.62263 0
147 1 Si 176.771 9.66356 1.59774 0
148 1 Si 173.617 11.0167 1.62808 0
149 1 Si 180.251 10.315 1.63505 0
150 1 Si 182.53 13.0534 1.62633 0
151 1 Si 186.13 13.1913 1.62798 0
152 1 Si 198.181 12.4965 1.62835 0
153 1 Si 201.247 13.4029 1.61648 0
154 1 Si 111.251 14.1103 1.58981 0
155 1 Si 117.676 14.7138 1.6372 0
156 1 Si 120.894 14.9546 1.62312 0
157 1 Si 132.667 13.6663 1.61355 0
158 1 Si 135.739 14.735 1.61528 0
159 1 Si 148.238 14.3176 1.616 0
160 1 Si 151.548 13.8036 1.6324 0
161 1 Si 158.093 13.6744 1.63676 0
162 1 Si 161.396 13.4729 1.61603 0
163 1 Si 165.981 14.6803 1.60798 0
164 1 Si 173.851 14.1536 1.63311 0
165 1 Si 171.123 15.5764 1.57195 0
166 1 Si 168.251 16.7118 1.6527 0
167 1 Si 192.845 14.4675 1.64724 0
168 1 Si 196.016 14.8228 1.62636 0
169 1 Si 105.171 16.2586 1.62129 0
170 1 Si 101.923 16.2994 1.62402 0
171 1 Si 112.376 16.954 1.64266 0
172 1 Si 115.593 17.1776 1.64351 0
173 1 Si 127.045 15.2243 1.63255 0
174 1 Si 122.034 18.0422 1.62103 0
175 1 Si 125.276 17.9578 1.63557 0
176 1 Si 130.182 15.6723 1.64623 0
177 1 Si 143.227 16.7117 1.63764 0
178 1 Si 135.582 17.9792 1.62328 0
179 1 Si 138.175 19.6962 1.63534 0
180 1 Si 141.167 18.9884 1.63073 0
181 1 Si 148.644 17.6941 1.61038 0
182 1 Si 145.742 18.9338 1.63534 0
183 1 Si 153.277 16.7503 1.6218 0
184 1 Si 156.619 16.741 1.63077 0
185 1 Si 163.105 16.1812 1.61695 0
186 1 Si 175.411 16.8993 1.6388 0
187 1 Si 170.98 18.68 1.60374 0
188 1 Si 173.804 19.6541 1.63494 0
189 1 Si 181.216 16.2056 1.59865 0
190 1 Si 178.398 17.7369 1.62318 0
191 1 Si 187.547 16.3593 1.62247 0
192 1 Si 190.815 16.9585 1.63607 0
193 1 Si 200.635 16.5878 1.627 0
194 1 Si 197.528 17.6198 1.62181 0
195 1 Si 2.38662 17.7585 1.63472 0
196 1 Si 203.053 18.6387 1.6272 0
197 1 Si 4.35972 15.1152 1.63058 0
198 1 Si 109.98 18.9995 1.61721 0
199 1 Si 106.77 19.0654 1.63369 0
200 1 Si 116.717 20.1464 1.61922 0
201 1 Si 119.976 20.6634 1.62572 0
202 1 Si 130.213 18.8216 1.62242 0
203 1 Si 133.066 20.0835 1.62971 0
204 1 Si 151.447 19.5491 1.62285 0
205 1 Si 158.631 19.5144 1.6088 0
206 1 Si 161.917 19.2313 1.62175 0
207 1 Si 168.148 19.8586 1.62174 0
208 1 Si 182.831 19.1235 1.62617 0
209 1 Si 186.022 19.3206 1.63824 0
210 1 Si 192.45 19.8165 1.63725 0
211 1 Si 195.732 20.3509 1.63486 0
212 1 Si 111.197 21.8524 1.64107 0
213 1 Si 114.325 22.3323 1.63659 0
214 1 Si 127.388 20.3488 1.62846 0
215 1 Si 132.687 23.32 1.64122 0
216 1 Si 137.956 22.8206 1.62792 0
217 1 Si 135.53 24.7171 1.63213 0
218 1 Si 142.655 21.6934 1.61706 0
219 1 Si 145.671 22.2654 1.59056 0
220 1 Si 152.326 22.9689 1.63217 0
221 1 Si 158.45 22.8561 1.62208 0
222 1 Si 155.472 24.1927 1.62802 0
223 1 Si 163.538 22.168 1.61011 0
224 1 Si 166.804 22.7454 1.63125 0
225 1 Si 178.532 20.9232 1.60931 0
226 1 Si 181.457 22.1181 1.60734 0
227 1 Si 187.432 22.3566 1.64566 0
228 1 Si 190.627 22.4393 1.64932 0
229 1 Si 3.52333 20.7208 1.6173 0
230 1 Si 202.338 21.8237 1.61645 0
231 1 Si 1.39071 22.9733 1.6231 0
232 1 Si 5.93502 22.788 1.63014 0
233 1 Si 7.68775 15.5432 1.6325 0
234 1 Si 9.3807 18.3739 1.61606 0
235 1 Si 8.74164 21.5133 1.62064 0
236 1 Si 105.835 22.1824 1.63446 0
237 1 Si 103.033 23.9257 1.62511 0
238 1 Si 99.3334 18.9092 1.63051 0
239 1 Si 99.9463 22.4107 1.62398 0
240 1 Si 108.664 23.7416 1.62908 0
241 1 Si 127.022 23.555 1.63044 0
242 1 Si 120.772 23.8499 1.63382 0
243 1 Si 123.978 24.9044 1.63714 0
244 1 Si 129.941 25.1668 1.62812 0
245 1 Si 140.761 24.057 1.63117 0
246 1 Si 145.089 25.5289 1.64005 0
247 1 Si 150.427 25.8735 1.61688 0
248 1 Si 147.458 27.6905 1.62022 0
249 1 Si 161.344 24.6051 1.61643 0
250 1 Si 173.442 22.7637 1.60161 0
251 1 Si 176.513 23.2527 1.62465 0
252 1 Si 181.714 25.4305 1.61015 0
253 1 Si 186.599 25.5669 1.62261 0
254 1 Si 184.064 27.5608 1.6223 0
255 1 Si 196.988 23.4742 1.62892 0
256 1 Si 191.88 25.3586 1.62244 0
257 1 Si 194.956 26.0501 1.64241 0
258 1 Si 200.19 24.2341 1.65084 0
259 1 Si 2.67211 25.8459 1.6306 0
260 1 Si 5.7832 26.0213 1.62926 0
261 1 Si 109.229 26.8374 1.63985 0
262 1 Si 106.629 28.774 1.63803 0
263 1 Si 103.611 27.307 1.63387 0
264 1 Si 114.906 25.4436 1.63687 0
265 1 Si 112.398 27.5749 1.63937 0
266 1 Si 118.121 25.904 1.62436 0
267 1 Si 142.061 26.8382 1.61317 0
268 1 Si 136.316 27.7862 1.63152 0
269 1 Si 139.482 28.8276 1.63373 0
270 1 Si 152.425 28.3819 1.60709 0
271 1 Si 155.443 27.4159 1.59609 0
272 1 Si 168.689 25.5616 1.61839 0
273 1 Si 171.886 25.4819 1.65096 0
274 1 Si 176.897 26.2959 1.63052 0
275 1 Si 179.546 27.8421 1.61537 0
276 1 Si 187.62 28.707 1.62604 0
277 1 Si 190.65 28.284 1.62488 0
278 1 Si 201.506 27.2724 1.62808 0
279 1 Si 0.741531 28.2471 1.62589 0
280 1 Si 124.001 28.0583 1.59679 0
281 1 Si 118.442 29.0587 1.62735 0
282 1 Si 121.446 29.8351 1.61971 0
283 1 Si 130.311 28.4824 1.6249 0
284 1 Si 125.152 30.9709 1.63889 0
285 1 Si 128.248 31.1499 1.61799 0
286 1 Si 133.466 29.338 1.62802 0
287 1 Si 146.489 31.1868 1.61321 0
288 1 Si 152.168 31.5983 1.64646 0
289 1 Si 149.277 33.1017 1.61791 0
290 1 Si 162.174 27.8788 1.6346 0
291 1 Si 156.982 30.1955 1.62982 0
292 1 Si 160.113 30.4103 1.62114 0
293 1 Si 168.166 28.8152 1.63457 0
294 1 Si 165.001 29.5596 1.62371 0
295 1 Si 174.137 27.7214 1.59977 0
296 1 Si 183.783 30.9269 1.63445 0
297 1 Si 186.786 31.9105 1.62362 0
298 1 Si 195.052 29.3298 1.61876 0
299 1 Si 192.265 30.9985 1.60866 0
300 1 Si 200.4 30.249 1.64221 0
301 1 Si 197.478 31.407 1.62746 0
302 1 Si 113.017 30.7145 1.6315 0
303 1 Si 107.375 32.0151 1.63573 0
304 1 Si 110.576 32.9262 1.63676 0
305 1 Si 116.196 31.3226 1.64583 0
306 1 Si 140.186 32.0136 1.63464 0
307 1 Si 134.164 32.3845 1.63414 0
308 1 Si 137.206 33.5388 1.61997 0
309 1 Si 143.453 33.1776 1.64773 0
310 1 Si 155.194 32.8838 1.61502 0
311 1 Si 175.853 30.4148 1.63415 0
312 1 Si 170.459 31.2643 1.62009 0
313 1 Si 173.537 32.4363 1.6375 0
314 1 Si 179.011 30.9623 1.61285 0
315 1 Si 181.332 33.2336 1.6224 0
316 1 Si 1.55996 31.299 1.62026 0
317 1 Si 202.559 32.5718 1.61884 0
318 1 Si 3.94118 33.4134 1.62846 0
319 1 Si 7.7009 28.6499 1.62679 0
320 1 Si 7.05022 32.0317 1.62973 0
321 1 Si 104.913 34.226 1.65133 0
322 1 Si 101.826 32.8827 1.64543 0
323 1 Si 101.15 29.5305 1.65161 0
324 1 Si 122.563 32.7457 1.61565 0
325 1 Si 117.335 34.3134 1.63608 0
326 1 Si 120.496 35.1508 1.63486 0
327 1 Si 131.626 34.2709 1.59791 0
328 1 Si 128.433 34.4361 1.59677 0
329 1 Si 164.452 32.748 1.62073 0
330 1 Si 161.37 33.3641 1.62242 0
331 1 Si 169.576 34.2767 1.62714 0
332 1 Si 166.534 35.1361 1.63673 0
333 1 Si 191.501 34.1823 1.64213 0
334 1 Si 188.224 34.9349 1.62922 0
335 1 Si 197.176 34.6558 1.62952 0
336 1 Si 194.262 36.0063 1.61944 0
337 1 Si 111.764 35.9627 1.6163 0
338 1 Si 105.412 37.5747 1.61517 0
339 1 Si 114.957 36.4179 1.62909 0
340 1 Si 132.858 37.1238 1.6014 0
341 1 Si 127.439 37.5825 1.62663 0
342 1 Si 130.346 39.0581 1.62533 0
343 1 Si 136.007 36.5138 1.63191 0
344 1 Si 143.589 36.6376 1.65262 0
345 1 Si 137.388 39.3127 1.62939 0
346 1 Si 140.812 38.7093 1.62193 0
347 1 Si 149.422 36.4281 1.63118 0
348 1 Si 146.649 38.1512 1.64082 0
349 1 Si 156.935 35.7297 1.6288 0
350 1 Si 152.092 38.3115 1.60511 0
351 1 Si 155.26 38.3854 1.62493 0
352 1 Si 160.219 36.38 1.62432 0
353 1 Si 175.083 35.2572 1.59297 0
354 1 Si 172.069 36.1739 1.62737 0
355 1 Si 180.83 36.7041 1.64143 0
356 1 Si 177.453 37.4352 1.63401 0
357 1 Si 202.608 35.711 1.62813 0
358 1 Si 199.596 36.8962 1.63307 0
359 1 Si 2.03628 36.2354 1.62684 0
360 1 Si 102.936 39.6384 1.62524 0
361 1 Si 99.4034 35.1705 1.64647 0
362 1 Si 99.9363 38.4815 1.63232 0
363 1 Si 121.57 38.2236 1.61366 0
364 1 Si 115.896 39.4269 1.62907 0
365 1 Si 119.012 40.261 1.63022 0
366 1 Si 124.68 39.4481 1.62614 0
367 1 Si 165.779 38.259 1.64214 0
368 1 Si 162.481 38.9631 1.64921 0
369 1 Si 171.81 39.2393 1.63332 0
370 1 Si 168.598 40.0647 1.64302 0
371 1 Si 186.896 38.1459 1.64917 0
372 1 Si 183.375 39.2122 1.63242 0
373 1 Si 195.38 39.1187 1.61631 0
374 1 Si 189.57 40.2575 1.61825 0
375 1 Si 192.798 40.953 1.62344 0
376 1 Si 198.668 40.056 1.61803 0
377 1 Si 103.758 42.7961 1.63166 0
378 1 Si 134.633 41.5863 1.63121 0
379 1 Si 131.135 42.1335 1.62817 0
380 1 Si 141.507 41.8215 1.63598 0
381 1 Si 135.996 44.4324 1.63769 0
382 1 Si 139.256 44.0876 1.61991 0
383 1 Si 9.33834 4.1931 1.61789 0
384 1 Si 10.5404 7.42179 1.61494 0
385 1 Si 8.38634 9.87255 1.63776 0
386 1 Si 9.82486 0.826491 1.62616 0
387 1 Si 7.25942 173.981 1.62156 0
388 1 Si 147.329 41.4066 1.63294 0
389 1 Si 144.533 42.9166 1.62457 0
390 1 Si 15.6109 1.56056 1.61984 0
391 1 Si 16.6343 5.13184 1.61544 0
392 1 Si 12.6315 174.545 1.63307 0
393 1 Si 13.1135 9.61784 1.62521 0
394 1 Si 16.1199 8.55871 1.6278 0
395 1 Si 18.1145 174.69 1.63536 0
396 1 Si 22.4166 4.64013 1.61341 0
397 1 Si 19.7116 6.22454 1.63211 0
398 1 Si 23.4674 1.62303 1.63283 0
399 1 Si 21.5307 174.439 1.62417 0
400 1 Si 14.3224 169.675 1.64059 0
401 1 Si 11.4269 170.723 1.64599 0
402 1 Si 16.7259 171.821 1.63908 0
403 1 Si 152.719 41.4638 1.61556 0
404 1 Si 150.128 43.3146 1.62736 0
405 1 Si 25.0896 6.33595 1.62709 0
406 1 Si 25.974 9.36149 1.63331 0
407 1 Si 20.6325 9.31215 1.63274 0
408 1 Si 23.3161 11.0002 1.63041 0
409 1 Si 27.5356 4.42914 1.61934 0
410 1 Si 26.6935 1.40654 1.60385 0
411 1 Si 30.5569 5.2312 1.62121 0
412 1 Si 31.476 8.3417 1.63538 0
413 1 Si 28.9706 10.6493 1.64138 0
414 1 Si 31.7638 2.24603 1.61717 0
415 1 Si 29.5242 175.236 1.62941 0
416 1 Si 36.1923 5.00005 1.61593 0
417 1 Si 34.8852 1.94569 1.62396 0
418 1 Si 34.8276 8.1134 1.6291 0
419 1 Si 39.0369 3.52173 1.62619 0
420 1 Si 39.0338 0.292323 1.63486 0
421 1 Si 36.2286 174.244 1.62103 0
422 1 Si 155.942 41.5241 1.62978 0
423 1 Si 42.1654 4.13555 1.63657 0
424 1 Si 43.2462 7.16378 1.62917 0
425 1 Si 40.417 9.58161 1.64904 0
426 1 Si 36.8586 10.7568 1.63191 0
427 1 Si 43.7479 1.29321 1.59103 0
428 1 Si 41.8031 174.108 1.59853 0
429 1 Si 158.577 43.6243 1.63026 0
430 1 Si 161.845 42.2645 1.62644 0
431 1 Si 46.8205 7.00408 1.62484 0
432 1 Si 47.9208 10.0473 1.64559 0
433 1 Si 42.1409 12.2248 1.62983 0
434 1 Si 45.3718 12.096 1.61305 0
435 1 Si 49.483 4.81218 1.62444 0
436 1 Si 48.9983 1.58258 1.63056 0
437 1 Si 46.5126 174.959 1.62216 0
438 1 Si 52.8657 4.92754 1.6341 0
439 1 Si 55.4661 6.91166 1.62494 0
440 1 Si 54.2174 9.91899 1.63125 0
441 1 Si 51.0829 11.0282 1.65438 0
442 1 Si 54.1519 2.05477 1.59319 0
443 1 Si 51.7231 0.0779842 1.57256 0
444 1 Si 58.835 6.38987 1.6251 0
445 1 Si 61.095 8.80196 1.62278 0
446 1 Si 56.9091 11.7567 1.61504 0
447 1 Si 60.1655 11.8403 1.62772 0
448 1 Si 60.8129 3.70865 1.64644 0
449 1 Si 59.7191 0.491122 1.63453 0
450 1 Si 56.4975 175.307 1.63578 0
451 1 Si 175.108 39.8603 1.62893 0
452 1 Si 64.037 4.69224 1.6256 0
453 1 Si 64.243 8.00985 1.61367 0
454 1 Si 66.936 2.94875 1.61641 0
455 1 Si 67.5823 174.873 1.62438 0
456 1 Si 61.4163 172.918 1.63047 0
457 1 Si 64.9531 172.68 1.63421 0
458 1 Si 69.6731 4.93662 1.63179 0
459 1 Si 69.8027 8.29509 1.6341 0
460 1 Si 66.9308 9.98393 1.64569 0
461 1 Si 72.6007 3.47815 1.62575 0
462 1 Si 73.4473 0.331161 1.61096 0
463 1 Si 70.9047 173.598 1.63442 0
464 1 Si 75.3857 5.08493 1.63993 0
465 1 Si 75.6156 8.33323 1.64342 0
466 1 Si 72.7273 9.99922 1.6364 0
467 1 Si 77.9005 3.04431 1.6283 0
468 1 Si 76.7414 175.299 1.62985 0
469 1 Si 175.446 43.0522 1.62666 0
470 1 Si 182.322 42.7495 1.6382 0
471 1 Si 178.873 44.2679 1.62173 0
472 1 Si 80.88 4.37556 1.64774 0
473 1 Si 81.4145 7.61695 1.63399 0
474 1 Si 78.7004 9.58121 1.65113 0
475 1 Si 83.4387 2.45563 1.63488 0
476 1 Si 83.5494 174.632 1.61428 0
477 1 Si 81.5787 172.202 1.61247 0
478 1 Si 78.4467 172.46 1.61887 0
479 1 Si 1.04126 42.1184 1.6172 0
480 1 Si 3.16826 39.3084 1.61648 0
481 1 Si 200.956 42.8962 1.63737 0
482 1 Si 86.5317 3.29684 1.63331 0
483 1 Si 87.1327 6.47889 1.62715 0
484 1 Si 84.6095 8.67842 1.64283 0
485 1 Si 88.3748 0.592378 1.64421 0
486 1 Si 86.4406 173.35 1.59772 0
487 1 Si 92.2492 4.12585 1.62478 0
488 1 Si 90.3023 7.31427 1.62023 0
489 1 Si 91.6275 0.620049 1.634 0
490 1 Si 95.4389 4.54629 1.64808 0
491 1 Si 96.4743 7.58297 1.62709 0
492 1 Si 90.2477 11.009 1.61997 0
493 1 Si 95.1189 10.4046 1.58959 0
494 1 Si 92.9618 12.6701 1.62671 0
495 1 Si 97.7045 2.27444 1.5971 0
496 1 Si 99.7127 175.176 1.63893 0
497 1 Si 99.7904 172.098 1.61632 0
498 1 Si 96.5107 171.593 1.5917 0
499 1 Si 93.1926 172.723 1.65194 0
500 1 Si 3.78757 44.0342 1.61594 0
501 1 Si 6.83516 42.5633 1.62566 0
502 1 Si 6.66125 39.3264 1.62111 0
503 1 Si 119.434 43.4323 1.6465 0
504 1 Si 125.148 42.7966 1.62229 0
505 1 Si 122.418 44.7489 1.64191 0
506 1 Si 9.6236 12.8837 1.62594 0
507 1 Si 12.8802 13.0163 1.61712 0
508 1 Si 128.256 44.1055 1.63393 0
509 1 Si 18.2408 11.2787 1.63008 0
510 1 Si 150.256 46.6583 1.60412 0
511 1 Si 158.074 47.1134 1.62198 0
512 1 Si 152.175 49.4125 1.62716 0
513 1 Si 155.562 49.6995 1.63075 0
514 1 Si 168.34 43.2502 1.6214 0
515 1 Si 164.855 44.048 1.63454 0
516 1 Si 171.898 44.094 1.63529 0
517 1 Si 190.339 43.3665 1.62344 0
518 1 Si 184.882 45.0388 1.61681 0
519 1 Si 188.066 45.4316 1.62052 0
520 1 Si 193.469 44.1284 1.61772 0
521 1 Si 85.1418 11.97 1.61769 0
522 1 Si 88.0486 13.6662 1.6075 0
523 1 Si 134.138 47.1332 1.63893 0
524 1 Si 128.058 47.4559 1.62846 0
525 1 Si 131.118 48.6085 1.65573 0
526 1 Si 141.462 46.396 1.62146 0
527 1 Si 136.865 48.7264 1.62695 0
528 1 Si 140.005 49.0808 1.63245 0
529 1 Si 144.607 46.0628 1.61886 0
530 1 Si 147.223 47.8736 1.62529 0
531 1 Si 22.9372 14.1898 1.62602 0
532 1 Si 19.6058 14.4005 1.64068 0
533 1 Si 28.8215 14.0918 1.62587 0
534 1 Si 25.7555 15.9942 1.6261 0
535 1 Si 35.2068 14.0803 1.61693 0
536 1 Si 31.9078 15.6735 1.63229 0
537 1 Si 40.6824 15.1306 1.62174 0
538 1 Si 37.6769 16.3464 1.62357 0
539 1 Si 45.7699 15.2457 1.62562 0
540 1 Si 43.1853 17.0692 1.61773 0
541 1 Si 164.161 47.2127 1.62268 0
542 1 Si 161.142 48.4429 1.60837 0
543 1 Si 51.108 14.1806 1.63364 0
544 1 Si 48.7138 16.179 1.62096 0
545 1 Si 56.6375 14.8501 1.61744 0
546 1 Si 53.7294 15.8468 1.63584 0
547 1 Si 178.402 47.6275 1.64066 0
548 1 Si 172.153 47.2655 1.62664 0
549 1 Si 175.198 48.4679 1.61946 0
550 1 Si 61.8451 14.7043 1.62412 0
551 1 Si 59.2893 16.5543 1.6119 0
552 1 Si 67.0568 13.321 1.63044 0
553 1 Si 64.9555 15.8362 1.61415 0
554 1 Si 185.703 48.2349 1.61732 0
555 1 Si 180.552 50.2992 1.63185 0
556 1 Si 183.846 50.8469 1.6255 0
557 1 Si 72.6453 13.3234 1.62279 0
558 1 Si 69.8542 14.8258 1.62018 0
559 1 Si 199.263 46.2717 1.61412 0
560 1 Si 195.845 46.4845 1.62241 0
561 1 Si 3.99696 47.2524 1.63881 0
562 1 Si 200.037 49.7509 1.61431 0
563 1 Si 2.00122 49.812 1.62763 0
564 1 Si 202.986 51.4114 1.64409 0
565 1 Si 79.2616 12.8253 1.61348 0
566 1 Si 82.3808 13.7231 1.61897 0
567 1 Si 7.09119 48.1818 1.63235 0
568 1 Si 9.95412 43.7396 1.62497 0
569 1 Si 9.97177 46.9374 1.62918 0
570 1 Si 97.028 12.8916 1.58593 0
571 1 Si 102.622 48.3714 1.63933 0
572 1 Si 101.565 45.1968 1.63831 0
573 1 Si 122.255 48.0676 1.64205 0
574 1 Si 119.403 49.8852 1.62995 0
575 1 Si 14.5322 16.095 1.63511 0
576 1 Si 17.795 17.229 1.6215 0
577 1 Si 125.229 49.4784 1.64358 0
578 1 Si 169.717 49.4418 1.62388 0
579 1 Si 166.488 49.5141 1.6234 0
580 1 Si 174.389 51.5668 1.64134 0
581 1 Si 171.302 52.2386 1.62207 0
582 1 Si 188.961 48.5157 1.60943 0
583 1 Si 74.4075 16.1317 1.6258 0
584 1 Si 77.5951 15.6822 1.62481 0
585 1 Si 82.4568 16.9127 1.62178 0
586 1 Si 85.1718 18.537 1.62581 0
587 1 Si 88.1171 17.1823 1.63013 0
588 1 Si 94.9314 15.203 1.62998 0
589 1 Si 194.764 49.6585 1.61585 0
590 1 Si 191.546 50.6767 1.64161 0
591 1 Si 12.6152 18.7474 1.62531 0
592 1 Si 136.384 51.6953 1.62211 0
593 1 Si 130.869 51.8197 1.63726 0
594 1 Si 133.671 52.9955 1.62504 0
595 1 Si 141.462 51.8821 1.63156 0
596 1 Si 138.857 53.5246 1.60161 0
597 1 Si 124.618 52.8145 1.61915 0
598 1 Si 126.507 55.4795 1.61491 0
599 1 Si 129.566 54.7648 1.64318 0
600 1 Si 31.5683 19.1608 1.64754 0
601 1 Si 25.3446 19.5183 1.61184 0
602 1 Si 28.5293 20.8283 1.62447 0
603 1 Si 146.968 51.0919 1.60821 0
604 1 Si 144.357 53.1117 1.62252 0
605 1 Si 37.3939 19.6899 1.63731 0
606 1 Si 34.3948 21.1196 1.62905 0
607 1 Si 150.066 52.0281 1.61094 0
608 1 Si 42.9902 20.2298 1.64381 0
609 1 Si 40.091 21.6658 1.62563 0
610 1 Si 50.2037 18.8872 1.62297 0
611 1 Si 45.6897 21.8037 1.618 0
612 1 Si 48.7826 21.5091 1.6184 0
613 1 Si 162.029 51.5773 1.62356 0
614 1 Si 156.493 52.9983 1.6006 0
615 1 Si 159.646 53.6308 1.61766 0
616 1 Si 53.2702 18.8911 1.60955 0
617 1 Si 58.7397 19.5905 1.63423 0
618 1 Si 55.7807 20.6091 1.63253 0
619 1 Si 165.186 52.4668 1.61429 0
620 1 Si 179.42 53.3818 1.61381 0
621 1 Si 176.328 54.0609 1.6193 0
622 1 Si 66.7533 18.6916 1.62276 0
623 1 Si 60.4449 22.1407 1.63078 0
624 1 Si 66.1461 21.8592 1.61124 0
625 1 Si 63.3071 23.1711 1.59892 0
626 1 Si 69.9128 18.0271 1.60365 0
627 1 Si 72.9178 19.1707 1.63136 0
628 1 Si 185.21 53.9305 1.61302 0
629 1 Si 180.395 56.4968 1.62214 0
630 1 Si 183.526 56.7498 1.62021 0
631 1 Si 79.5484 18.2809 1.60666 0
632 1 Si 197.302 51.8334 1.6145 0
633 1 Si 104.229 54.5261 1.62781 0
634 1 Si 100.09 50.6474 1.62791 0
635 1 Si 101.017 53.8513 1.64377 0
636 1 Si 4.22341 52.009 1.60652 0
637 1 Si 7.22414 51.2572 1.63371 0
638 1 Si 203.522 54.7773 1.6149 0
639 1 Si 4.98444 55.0098 1.62781 0
640 1 Si 2.38558 56.5962 1.61599 0
641 1 Si 118.883 53.1716 1.63034 0
642 1 Si 115.938 54.8991 1.62409 0
643 1 Si 95.8626 18.3215 1.61768 0
644 1 Si 121.81 54.5751 1.62287 0
645 1 Si 18.9628 20.756 1.63074 0
646 1 Si 13.4996 21.924 1.63507 0
647 1 Si 16.4856 23.3183 1.62587 0
648 1 Si 22.4311 21.8596 1.63446 0
649 1 Si 150.032 55.2627 1.625 0
650 1 Si 144.153 56.424 1.6164 0
651 1 Si 147.326 57.0446 1.6266 0
652 1 Si 155.511 56.1906 1.63084 0
653 1 Si 152.532 57.3075 1.63374 0
654 1 Si 170.326 55.3487 1.62166 0
655 1 Si 167.061 55.203 1.64525 0
656 1 Si 79.4402 21.5048 1.63254 0
657 1 Si 84.9954 21.7466 1.62696 0
658 1 Si 82.1754 23.2542 1.61562 0
659 1 Si 175.511 57.2142 1.62279 0
660 1 Si 172.326 58.0954 1.64439 0
661 1 Si 89.983 20.0094 1.64426 0
662 1 Si 93.3007 20.5974 1.61949 0
663 1 Si 191.115 54.0424 1.62883 0
664 1 Si 188.128 55.3827 1.64007 0
665 1 Si 196.745 55.313 1.6457 0
666 1 Si 193.576 56.3721 1.64445 0
667 1 Si 10.9419 23.8611 1.62853 0
668 1 Si 108.495 57.1213 1.6216 0
669 1 Si 105.218 57.5961 1.62789 0
670 1 Si 122.108 57.872 1.61417 0
671 1 Si 125.297 58.5806 1.61471 0
672 1 Si 134.14 55.9943 1.61842 0
673 1 Si 131.422 57.3431 1.63903 0
674 1 Si 28.7192 24.1363 1.62576 0
675 1 Si 23.1675 25.3791 1.63154 0
676 1 Si 26.285 26.2976 1.64254 0
677 1 Si 34.4459 24.5253 1.63403 0
678 1 Si 31.4596 25.8847 1.61331 0
679 1 Si 137.206 56.1024 1.65112 0
680 1 Si 40.2062 24.9452 1.64684 0
681 1 Si 37.2545 26.4054 1.62179 0
682 1 Si 141.553 58.5985 1.63501 0
683 1 Si 138.208 58.9648 1.62158 0
684 1 Si 47.2451 24.48 1.63078 0
685 1 Si 42.9618 26.7873 1.61266 0
686 1 Si 46.2041 27.306 1.62162 0
687 1 Si 50.3103 24.1854 1.60456 0
688 1 Si 160.255 56.6984 1.6056 0
689 1 Si 157.697 58.5549 1.61555 0
690 1 Si 55.5319 23.6515 1.63514 0
691 1 Si 53.0724 25.4672 1.65458 0
692 1 Si 58.4599 24.515 1.61974 0
693 1 Si 165.802 58.1257 1.63866 0
694 1 Si 162.739 58.4726 1.62846 0
695 1 Si 66.7153 24.9797 1.62937 0
696 1 Si 63.8594 26.2752 1.60039 0
697 1 Si 73.7302 22.4621 1.65452 0
698 1 Si 69.046 27.0269 1.6265 0
699 1 Si 71.8406 25.2144 1.61066 0
700 1 Si 178.233 59.0002 1.62635 0
701 1 Si 76.8724 23.4156 1.62059 0
702 1 Si 187.816 58.6604 1.62397 0
703 1 Si 184.805 59.7412 1.62062 0
704 1 Si 202.083 57.6837 1.63874 0
705 1 Si 198.87 58.0358 1.62574 0
706 1 Si 88.0331 22.6928 1.63192 0
707 1 Si 9.41526 53.4856 1.64086 0
708 1 Si 7.89468 56.2753 1.62045 0
709 1 Si 94.1778 23.8808 1.64042 0
710 1 Si 97.4284 24.792 1.63179 0
711 1 Si 116.363 58.4409 1.63426 0
712 1 Si 113.499 60.3393 1.62296 0
713 1 Si 110.187 59.8487 1.62215 0
714 1 Si 119.637 60.1345 1.62434 0
715 1 Si 16.1348 26.8882 1.62678 0
716 1 Si 10.6164 27.1167 1.63744 0
717 1 Si 13.3101 28.8792 1.62832 0
718 1 Si 21.7704 28.5462 1.62648 0
719 1 Si 18.5975 29.0705 1.62836 0
720 1 Si 148.311 59.9892 1.62349 0
721 1 Si 141.723 61.7341 1.63945 0
722 1 Si 146.918 62.7636 1.6305 0
723 1 Si 144.018 63.8285 1.62201 0
724 1 Si 59.0065 27.4842 1.6211 0
725 1 Si 53.6865 28.4885 1.62847 0
726 1 Si 56.6293 29.4196 1.63352 0
727 1 Si 151.457 60.3042 1.61899 0
728 1 Si 61.844 28.726 1.61233 0
729 1 Si 158.298 61.7071 1.63155 0
730 1 Si 151.791 63.4712 1.63949 0
731 1 Si 154.138 65.6191 1.61782 0
732 1 Si 157.268 64.8026 1.6223 0
733 1 Si 171.422 61.4249 1.61957 0
734 1 Si 166.044 61.3109 1.63434 0
735 1 Si 168.584 63.0816 1.61012 0
736 1 Si 81.3333 26.3576 1.62348 0
737 1 Si 78.1273 26.4093 1.61399 0
738 1 Si 88.7116 25.8656 1.6403 0
739 1 Si 83.2648 28.9095 1.63013 0
740 1 Si 86.4969 28.3418 1.6184 0
741 1 Si 178.289 62.3516 1.62842 0
742 1 Si 172.806 64.4514 1.61924 0
743 1 Si 175.997 64.7437 1.6176 0
744 1 Si 91.9532 26.451 1.64715 0
745 1 Si 193.08 59.7485 1.64535 0
746 1 Si 190.053 60.9594 1.63674 0
747 1 Si 0.200098 60.352 1.62886 0
748 1 Si 3.27677 59.704 1.6262 0
749 1 Si 198.349 61.4041 1.63679 0
750 1 Si 195.251 62.3012 1.64069 0
751 1 Si 27.1494 29.435 1.61553 0
752 1 Si 22.6357 31.8678 1.62853 0
753 1 Si 25.777 32.4536 1.62445 0
754 1 Si 30.3187 28.924 1.62442 0
755 1 Si 113.447 63.6305 1.6215 0
756 1 Si 108.188 62.508 1.63293 0
757 1 Si 110.383 64.8429 1.63013 0
758 1 Si 131.929 60.3829 1.64195 0
759 1 Si 126.462 61.752 1.63682 0
760 1 Si 129.651 62.6195 1.62942 0
761 1 Si 37.6837 29.6892 1.63932 0
762 1 Si 31.9669 31.6062 1.62931 0
763 1 Si 35.1968 31.6804 1.62016 0
764 1 Si 121.093 63.4911 1.62797 0
765 1 Si 115.787 65.8894 1.619 0
766 1 Si 119.071 66.1111 1.63093 0
767 1 Si 135.205 60.4631 1.62839 0
768 1 Si 43.3054 29.9577 1.62794 0
769 1 Si 40.5237 31.3985 1.62186 0
770 1 Si 124.47 64.4088 1.61109 0
771 1 Si 136.133 63.3734 1.62449 0
772 1 Si 139.214 63.5702 1.61854 0
773 1 Si 48.5772 29.578 1.6165 0
774 1 Si 46.1325 31.5302 1.62602 0
775 1 Si 51.6258 30.7948 1.61438 0
776 1 Si 161.427 61.3131 1.61694 0
777 1 Si 68.3961 30.3271 1.62047 0
778 1 Si 60.7564 31.8014 1.63761 0
779 1 Si 66.6628 33.2312 1.61966 0
780 1 Si 63.1467 34.0146 1.61779 0
781 1 Si 163.616 63.4395 1.63424 0
782 1 Si 73.225 28.06 1.62041 0
783 1 Si 71.5446 30.7198 1.62034 0
784 1 Si 76.2754 28.9675 1.6238 0
785 1 Si 183.94 62.9194 1.64791 0
786 1 Si 180.957 64.1942 1.61886 0
787 1 Si 98.0686 28.2105 1.65188 0
788 1 Si 92.6426 29.7285 1.64491 0
789 1 Si 95.7698 30.6838 1.64401 0
790 1 Si 189.313 64.1772 1.64714 0
791 1 Si 186.231 65.2418 1.64609 0
792 1 Si 203.584 63.5412 1.63864 0
793 1 Si 200.404 64.1028 1.64336 0
794 1 Si 12.6993 32.2481 1.63725 0
795 1 Si 9.78344 34.0188 1.61876 0
796 1 Si 104.878 63.1815 1.64162 0
797 1 Si 103.189 60.2698 1.64387 0
798 1 Si 18.1425 32.3187 1.61964 0
799 1 Si 20.5226 34.4877 1.6 0
800 1 Si 57.4332 32.4068 1.59969 0
801 1 Si 54.1074 33.0437 1.63332 0
802 1 Si 149.013 65.0687 1.61902 0
803 1 Si 167.947 66.3628 1.62871 0
804 1 Si 171.012 67.3306 1.62479 0
805 1 Si 82.2263 32.0745 1.61428 0
806 1 Si 76.7346 32.1643 1.62172 0
807 1 Si 79.4807 33.9563 1.63364 0
808 1 Si 194.684 65.6276 1.64678 0
809 1 Si 191.594 66.4983 1.65112 0
810 1 Si 87.3548 31.4548 1.62751 0
811 1 Si 84.9989 33.6901 1.63008 0
812 1 Si 90.4406 32.2362 1.63434 0
813 1 Si 2.17047 65.8211 1.62874 0
814 1 Si 5.42997 64.9928 1.63665 0
815 1 Si 5.90719 61.6304 1.63677 0
816 1 Si 109.432 67.9945 1.63508 0
817 1 Si 106.217 68.8834 1.63245 0
818 1 Si 103.731 66.4726 1.63162 0
819 1 Si 114.776 68.9628 1.63126 0
820 1 Si 111.839 70.2511 1.63252 0
821 1 Si 119.988 69.2964 1.61141 0
822 1 Si 117.247 70.9553 1.62211 0
823 1 Si 15.4228 33.9915 1.63266 0
824 1 Si 131.314 65.4406 1.62661 0
825 1 Si 126.386 67.229 1.63312 0
826 1 Si 129.598 68.0326 1.62734 0
827 1 Si 134.474 66.0254 1.61803 0
828 1 Si 30.4695 34.4589 1.61992 0
829 1 Si 27.3403 35.3942 1.63886 0
830 1 Si 139.636 66.6683 1.6154 0
831 1 Si 136.865 68.1937 1.64147 0
832 1 Si 35.9707 34.7478 1.62893 0
833 1 Si 33.1535 36.1597 1.62459 0
834 1 Si 142.765 66.7398 1.63148 0
835 1 Si 41.2774 34.5611 1.63762 0
836 1 Si 38.7249 36.3965 1.63268 0
837 1 Si 147.663 67.9942 1.63424 0
838 1 Si 144.593 69.2476 1.62774 0
839 1 Si 46.8334 34.6329 1.6398 0
840 1 Si 44.0517 36.1872 1.63749 0
841 1 Si 150.109 69.9661 1.62416 0
842 1 Si 153.223 68.8028 1.62953 0
843 1 Si 162.665 66.4932 1.6154 0
844 1 Si 159.501 67.28 1.62572 0
845 1 Si 52.8802 36.0052 1.6227 0
846 1 Si 49.5315 36.4126 1.61433 0
847 1 Si 165.272 68.4485 1.62261 0
848 1 Si 73.662 33.144 1.61519 0
849 1 Si 69.2237 35.6619 1.62301 0
850 1 Si 72.8343 36.2199 1.64941 0
851 1 Si 177.004 67.8838 1.62393 0
852 1 Si 171.869 70.6007 1.61932 0
853 1 Si 175.182 70.6806 1.62211 0
854 1 Si 180.206 67.4108 1.6309 0
855 1 Si 185.495 68.4415 1.63008 0
856 1 Si 182.48 69.7421 1.62006 0
857 1 Si 96.3218 34.027 1.64755 0
858 1 Si 90.8901 35.5144 1.6388 0
859 1 Si 94.0211 36.4573 1.64339 0
860 1 Si 199.773 67.3911 1.64186 0