ITEM: TIMESTEP
1571
ITEM: NUMBER OF ATOMS
15612
ITEM: BOX BOUNDS pp pp pp
0.0000000000000000e+00 2.0468283172847140e+02
0.0000000000000000e+00 1.7759376081691522e+02
-1.0000000000000000e+02 1.0000000000000000e+02
ITEM: ATOMS id type element x y z v_uncoordination
1 1 Si 171.459 31.8248 1.62603 0
2 1 Si 170.95 27.922 1.63986 0
3 1 Si 169.71 34.7498 1.63637 0
4 1 Si 167.659 26.7849 1.62155 0
5 1 Si 165.108 28.8486 1.62746 0
6 1 Si 164.696 31.9776 1.62807 0
7 1 Si 166.664 34.3878 1.62197 0
8 1 Si 173.894 34.2153 1.62623 0
9 1 Si 173.552 25.3841 1.62986 0
10 1 Si 176.961 26.6625 1.63096 0
11 1 Si 178.19 30.0154 1.61843 0
12 1 Si 176.943 33.2339 1.6228 0
13 1 Si 174.011 37.697 1.61534 0
14 1 Si 169.38 38.1392 1.63574 0
15 1 Si 171.805 40.1988 1.61992 0
16 1 Si 110.55 34.9791 1.63395 0
17 1 Si 107.63 36.3107 1.59206 0
18 1 Si 107.763 31.0907 1.62046 0
19 1 Si 110.943 31.6979 1.6077 0
20 1 Si 105.918 33.6461 1.61789 0
21 1 Si 112.495 37.457 1.62313 0
22 1 Si 112.522 40.646 1.61159 0
23 1 Si 115.603 37.4686 1.61087 0
24 1 Si 115.681 40.6178 1.60111 0
25 1 Si 105.515 38.6626 1.63472 0
26 1 Si 105.546 41.8188 1.62945 0
27 1 Si 111.245 43.6188 1.62643 0
28 1 Si 107.98 43.8623 1.60915 0
29 1 Si 118.03 35.5466 1.62541 0
30 1 Si 120.262 38.027 1.62449 0
31 1 Si 118.192 32.2046 1.6166 0
32 1 Si 121.416 32.7908 1.61724 0
33 1 Si 122.574 35.856 1.61857 0
34 1 Si 120.428 41.3748 1.63498 0
35 1 Si 117.67 43.1394 1.63654 0
36 1 Si 106.137 3.90336 1.63211 0
37 1 Si 102.621 3.45408 1.63074 0
38 1 Si 107.531 7.07697 1.62977 0
39 1 Si 105.309 9.41877 1.6058 0
40 1 Si 102.199 8.83125 1.60159 0
41 1 Si 100.51 6.12065 1.64675 0
42 1 Si 108.585 1.39994 1.63039 0
43 1 Si 100.948 0.490318 1.65745 0
44 1 Si 106.004 173.657 1.62424 0
45 1 Si 108.826 175.512 1.62841 0
46 1 Si 102.854 175.096 1.61258 0
47 1 Si 112.847 5.53715 1.62349 0
48 1 Si 110.779 8.07988 1.63301 0
49 1 Si 111.719 2.5328 1.62543 0
50 1 Si 116.154 5.52602 1.63378 0
51 1 Si 117.61 8.41456 1.61986 0
52 1 Si 112.227 11.172 1.64178 0
53 1 Si 115.652 11.0992 1.61988 0
54 1 Si 117.564 2.56726 1.60637 0
55 1 Si 114.644 1.06212 1.61897 0
56 1 Si 123.269 6.55525 1.62066 0
57 1 Si 123.189 3.15524 1.63202 0
58 1 Si 120.855 8.96094 1.61694 0
59 1 Si 120.623 1.06446 1.62274 0
60 1 Si 127.997 4.54003 1.60964 0
61 1 Si 131.004 3.65496 1.63309 0
62 1 Si 126.476 7.32563 1.62809 0
63 1 Si 133.591 5.42225 1.61593 0
64 1 Si 133.82 8.57965 1.6207 0
65 1 Si 128.188 10.099 1.63394 0
66 1 Si 131.437 10.7063 1.63246 0
67 1 Si 126.185 1.90295 1.61135 0
68 1 Si 131.122 0.472026 1.61681 0
69 1 Si 128.123 176.914 1.63185 0
70 1 Si 136.479 4.0246 1.63133 0
71 1 Si 136.545 0.822334 1.62896 0
72 1 Si 133.903 176.527 1.63428 0
73 1 Si 138.812 6.24707 1.61636 0
74 1 Si 137.003 8.91344 1.61898 0
75 1 Si 142.117 6.40153 1.62863 0
76 1 Si 143.741 3.69952 1.6299 0
77 1 Si 142.118 0.928207 1.60213 0
78 1 Si 139.348 176.96 1.63244 0
79 1 Si 144.126 9.01924 1.6225 0
80 1 Si 138.68 11.5548 1.62112 0
81 1 Si 141.848 11.2223 1.61682 0
82 1 Si 146.973 3.48422 1.62406 0
83 1 Si 147.118 0.275226 1.63295 0
84 1 Si 144.346 176.289 1.60503 0
85 1 Si 149.584 5.42606 1.62273 0
86 1 Si 150.001 8.58623 1.62395 0
87 1 Si 147.255 10.1801 1.63011 0
88 1 Si 152.738 4.70893 1.60815 0
89 1 Si 152.231 1.50315 1.62094 0
90 1 Si 150.018 176.651 1.63495 0
91 1 Si 155.037 7.13469 1.63557 0
92 1 Si 153.084 9.67365 1.62752 0
93 1 Si 157.598 2.06598 1.63162 0
94 1 Si 155.029 0.294342 1.63115 0
95 1 Si 158.809 176.864 1.61754 0
96 1 Si 154.453 174.741 1.63523 0
97 1 Si 157.385 174.134 1.62619 0
98 1 Si 159.635 4.39012 1.61992 0
99 1 Si 158.403 7.34945 1.63263 0
100 1 Si 161.921 2.10685 1.64306 0
101 1 Si 161.829 176.465 1.62149 0
102 1 Si 165.814 6.23589 1.60644 0
103 1 Si 164.801 3.1549 1.60818 0
104 1 Si 164.508 9.51488 1.64137 0
105 1 Si 160.447 10.0557 1.61561 0
106 1 Si 168.122 3.84836 1.61449 0
107 1 Si 166.935 0.751424 1.61152 0
108 1 Si 173.145 6.47926 1.6188 0
109 1 Si 171.268 3.61732 1.63387 0
110 1 Si 173.336 9.93584 1.64027 0
111 1 Si 167.057 12.2765 1.62264 0
112 1 Si 170.708 12.3966 1.6306 0
113 1 Si 175.959 4.8987 1.61422 0
114 1 Si 176.148 1.79658 1.61378 0
115 1 Si 171.493 0.159454 1.62559 0
116 1 Si 174.405 176.826 1.62256 0
117 1 Si 179.086 5.65183 1.62976 0
118 1 Si 179.428 8.94717 1.63483 0
119 1 Si 176.666 10.9807 1.63472 0
120 1 Si 181.071 2.94592 1.63047 0
121 1 Si 180.663 177.263 1.61895 0
122 1 Si 177.675 176.626 1.63952 0
123 1 Si 184.284 2.70523 1.62359 0
124 1 Si 186.368 5.336 1.62808 0
125 1 Si 185.51 8.7142 1.62911 0
126 1 Si 182.527 10.1963 1.62092 0
127 1 Si 185.149 177.058 1.6186 0
128 1 Si 182.765 174.791 1.60579 0
129 1 Si 189.483 4.07445 1.6122 0
130 1 Si 191.955 6.10645 1.63881 0
131 1 Si 192.072 9.22207 1.6196 0
132 1 Si 187.278 11.5424 1.61639 0
133 1 Si 190.415 11.8664 1.64988 0
134 1 Si 190.483 0.886971 1.62899 0
135 1 Si 188.252 176.056 1.63365 0
136 1 Si 195.043 5.3295 1.62866 0
137 1 Si 196.088 2.36723 1.62205 0
138 1 Si 193.716 0.136917 1.6283 0
139 1 Si 201.081 4.67093 1.63721 0
140 1 Si 204.228 4.6007 1.62836 0
141 1 Si 200.087 7.71039 1.62462 0
142 1 Si 204.449 7.90495 1.62318 0
143 1 Si 202.048 10.2108 1.62761 0
144 1 Si 199.31 2.01864 1.63403 0
145 1 Si 1.22693 1.74737 1.64747 0
146 1 Si 204.29 176.48 1.61976 0
147 1 Si 200.818 176.706 1.6448 0
148 1 Si 197.002 7.79895 1.6234 0
149 1 Si 2.79012 8.71577 1.62941 0
150 1 Si 5.34456 6.71686 1.61464 0
151 1 Si 6.57605 3.75706 1.62774 0
152 1 Si 4.49963 1.35018 1.61979 0
153 1 Si 120.769 12.3302 1.6159 0
154 1 Si 126.712 12.9516 1.61656 0
155 1 Si 123.598 13.9941 1.64678 0
156 1 Si 195.053 10.1575 1.62196 0
157 1 Si 195.429 13.1818 1.62511 0
158 1 Si 201.227 13.4993 1.64007 0
159 1 Si 198.129 14.7852 1.61083 0
160 1 Si 3.32037 11.8598 1.6138 0
161 1 Si 6.45846 11.4847 1.6278 0
162 1 Si 7.80864 8.65111 1.63823 0
163 1 Si 104.531 12.5202 1.62702 0
164 1 Si 110.407 14.1851 1.62439 0
165 1 Si 106.823 14.8429 1.62226 0
166 1 Si 117.643 13.7602 1.61282 0
167 1 Si 132.203 13.8511 1.62317 0
168 1 Si 129.236 14.9584 1.61513 0
169 1 Si 137.69 14.6177 1.63417 0
170 1 Si 134.762 15.9157 1.63501 0
171 1 Si 142.831 14.1227 1.62776 0
172 1 Si 140.439 16.1673 1.60517 0
173 1 Si 148.361 13.261 1.62487 0
174 1 Si 145.776 15.0945 1.61996 0
175 1 Si 154.323 12.6768 1.63305 0
176 1 Si 151.417 14.5691 1.6376 0
177 1 Si 157.939 12.6992 1.62759 0
178 1 Si 165.795 15.5236 1.61959 0
179 1 Si 159.122 15.7929 1.62705 0
180 1 Si 162.516 16.3921 1.61192 0
181 1 Si 171.962 15.6377 1.61627 0
182 1 Si 167.603 18.4232 1.61339 0
183 1 Si 170.881 18.8453 1.62526 0
184 1 Si 177.402 14.2732 1.63561 0
185 1 Si 175.091 16.5622 1.62976 0
186 1 Si 182.878 13.4855 1.61867 0
187 1 Si 180.443 15.6122 1.63863 0
188 1 Si 185.944 14.5183 1.61914 0
189 1 Si 192.471 14.3061 1.61251 0
190 1 Si 2.17736 14.8547 1.63718 0
191 1 Si 203.58 15.8603 1.6266 0
192 1 Si 101.343 11.902 1.61351 0
193 1 Si 112.525 16.9024 1.62167 0
194 1 Si 116.009 16.8534 1.63174 0
195 1 Si 129.201 18.0872 1.63865 0
196 1 Si 123.555 17.1706 1.60111 0
197 1 Si 126.204 18.8077 1.61947 0
198 1 Si 134.639 19.2432 1.63113 0
199 1 Si 131.563 20.267 1.63405 0
200 1 Si 193.041 17.4505 1.64295 0
201 1 Si 196.53 17.7125 1.61336 0
202 1 Si 5.37932 15.8643 1.62632 0
203 1 Si 8.17016 14.076 1.61662 0
204 1 Si 107.652 19.9711 1.62919 0
205 1 Si 105.091 17.8001 1.6128 0
206 1 Si 110.992 19.897 1.63961 0
207 1 Si 117.46 20.0033 1.60214 0
208 1 Si 122.787 20.2073 1.64989 0
209 1 Si 120.198 21.861 1.61724 0
210 1 Si 142.123 18.8286 1.64059 0
211 1 Si 137.054 21.5521 1.61501 0
212 1 Si 140.383 21.4969 1.62352 0
213 1 Si 145.328 18.2391 1.61484 0
214 1 Si 151.039 17.8717 1.62561 0
215 1 Si 148.203 19.6584 1.61589 0
216 1 Si 156.916 18.449 1.62238 0
217 1 Si 153.651 19.8138 1.62533 0
218 1 Si 162.553 19.5751 1.60204 0
219 1 Si 159.464 20.4025 1.63013 0
220 1 Si 165.508 20.9011 1.6206 0
221 1 Si 175.756 19.8362 1.62851 0
222 1 Si 173.028 21.6812 1.62318 0
223 1 Si 181.268 18.8491 1.6435 0
224 1 Si 178.831 21.1205 1.64004 0
225 1 Si 187.017 17.638 1.62429 0
226 1 Si 184.485 19.7526 1.62988 0
227 1 Si 190.044 19.1013 1.61569 0
228 1 Si 202.273 19.039 1.61709 0
229 1 Si 198.872 20.1423 1.63412 0
230 1 Si 192.235 43.9962 1.61243 0
231 1 Si 194.713 41.8739 1.61704 0
232 1 Si 189.027 43.0866 1.63598 0
233 1 Si 190.649 37.7181 1.6342 0
234 1 Si 193.814 38.7166 1.63079 0
235 1 Si 188.385 39.9089 1.62331 0
236 1 Si 194.108 46.6597 1.62091 0
237 1 Si 197.756 43.287 1.63383 0
238 1 Si 197.417 46.5897 1.62269 0
239 1 Si 186.157 44.7056 1.63083 0
240 1 Si 186.473 48.0017 1.63638 0
241 1 Si 192.567 49.3968 1.63041 0
242 1 Si 189.329 49.7333 1.64749 0
243 1 Si 0.155571 21.1468 1.65966 0
244 1 Si 3.42513 20.7478 1.61723 0
245 1 Si 6.17465 18.9137 1.62939 0
246 1 Si 106.672 23.0181 1.61682 0
247 1 Si 103.718 24.1749 1.62168 0
248 1 Si 101.783 19.0376 1.6254 0
249 1 Si 101.267 22.2605 1.6159 0
250 1 Si 112.73 22.8549 1.6378 0
251 1 Si 115.978 22.9748 1.61805 0
252 1 Si 125.466 21.8176 1.59383 0
253 1 Si 130.926 23.4333 1.62233 0
254 1 Si 127.755 23.9453 1.64763 0
255 1 Si 136.386 24.7628 1.61113 0
256 1 Si 133.221 25.8587 1.63213 0
257 1 Si 189.063 22.3027 1.61544 0
258 1 Si 197.61 23.3717 1.63861 0
259 1 Si 194.623 24.7862 1.63145 0
260 1 Si 191.26 24.7262 1.63289 0
261 1 Si 108.367 25.7102 1.62058 0
262 1 Si 111.558 25.9751 1.63651 0
263 1 Si 117.629 25.9472 1.61996 0
264 1 Si 120.776 25.1449 1.62426 0
265 1 Si 142.16 24.26 1.60749 0
266 1 Si 139.405 26.1274 1.62052 0
267 1 Si 148.381 22.9314 1.61856 0
268 1 Si 145.535 25.0851 1.63148 0
269 1 Si 151.825 22.7743 1.62083 0
270 1 Si 159.356 23.4977 1.65133 0
271 1 Si 153.422 25.6201 1.63504 0
272 1 Si 156.741 25.3613 1.6031 0
273 1 Si 165.662 24.0928 1.627 0
274 1 Si 162.427 24.5085 1.62617 0
275 1 Si 179.626 24.4069 1.64196 0
276 1 Si 185.633 22.8173 1.62126 0
277 1 Si 183.063 25.187 1.64531 0
278 1 Si 199.136 26.2825 1.62514 0
279 1 Si 204.272 24.3049 1.60651 0
280 1 Si 202.157 26.6056 1.64777 0
281 1 Si 106.377 28.2359 1.62285 0
282 1 Si 103.305 27.3547 1.6258 0
283 1 Si 113.02 29.044 1.62636 0
284 1 Si 116.398 29.1711 1.63031 0
285 1 Si 126.518 26.8008 1.62028 0
286 1 Si 123.32 27.3306 1.62775 0
287 1 Si 143.55 45.9973 1.65295 0
288 1 Si 141.444 43.7769 1.55781 0
289 1 Si 146.23 44.3476 1.63086 0
290 1 Si 146.012 41.2382 1.63919 0
291 1 Si 143.015 40.9009 1.56092 0
292 1 Si 142.601 49.0472 1.62973 0
293 1 Si 136.9 40.6162 1.57229 0
294 1 Si 139.843 41.3014 1.62213 0
295 1 Si 136.418 43.9966 1.59642 0
296 1 Si 136.902 47.3129 1.62947 0
297 1 Si 139.376 49.4112 1.62635 0
298 1 Si 148.988 45.6666 1.62661 0
299 1 Si 149.509 48.7719 1.61638 0
300 1 Si 144.529 51.7172 1.62874 0
301 1 Si 147.767 51.4548 1.63913 0
302 1 Si 132.042 29.0155 1.64113 0
303 1 Si 128.752 29.0918 1.63261 0
304 1 Si 162.179 27.5549 1.63123 0
305 1 Si 194.876 27.915 1.61209 0
306 1 Si 189.666 27.5798 1.61343 0
307 1 Si 192.178 29.3622 1.61529 0
308 1 Si 196.44 30.6514 1.62574 0
309 1 Si 199.306 29.5836 1.6381 0
310 1 Si 5.274 23.2954 1.62306 0
311 1 Si 1.52817 26.7922 1.62366 0
312 1 Si 4.52758 26.3294 1.63303 0
313 1 Si 9.42609 19.8459 1.62899 0
314 1 Si 8.37313 22.8402 1.61966 0
315 1 Si 123.686 30.555 1.63108 0
316 1 Si 139.992 29.2423 1.61163 0
317 1 Si 133.363 32.142 1.60494 0
318 1 Si 138.853 32.1964 1.62195 0
319 1 Si 136.193 33.9405 1.6282 0
320 1 Si 145.848 28.4662 1.62441 0
321 1 Si 143.048 30.1684 1.60818 0
322 1 Si 151.852 28.601 1.62877 0
323 1 Si 148.777 30.0643 1.64119 0
324 1 Si 158.974 27.6905 1.62543 0
325 1 Si 157.464 30.3704 1.61957 0
326 1 Si 154.315 30.6678 1.60548 0
327 1 Si 183.942 28.4591 1.62997 0
328 1 Si 181.482 30.7204 1.61774 0
329 1 Si 187.124 29.4971 1.6371 0
330 1 Si 202.625 29.7214 1.62788 0
331 1 Si 0.964593 29.8855 1.6346 0
332 1 Si 126.792 31.5764 1.6348 0
333 1 Si 128.019 34.5585 1.64019 0
334 1 Si 131.307 34.6906 1.61268 0
335 1 Si 141.851 33.0788 1.61437 0
336 1 Si 159.035 33.0827 1.60887 0
337 1 Si 162.058 33.751 1.62984 0
338 1 Si 192.267 32.4434 1.61237 0
339 1 Si 195.237 33.6022 1.63926 0
340 1 Si 200.988 32.3712 1.62208 0
341 1 Si 2.06334 32.8166 1.62488 0
342 1 Si 5.14986 32.467 1.62705 0
343 1 Si 5.64484 29.3141 1.62555 0
344 1 Si 102.787 34.0838 1.63773 0
345 1 Si 100.457 28.8978 1.62508 0
346 1 Si 100.224 32.1365 1.63256 0
347 1 Si 125.646 36.8823 1.61949 0
348 1 Si 9.74222 2.78381 1.63842 0
349 1 Si 12.1754 4.96315 1.62119 0
350 1 Si 10.9171 7.95273 1.63172 0
351 1 Si 9.97329 177.128 1.6142 0
352 1 Si 6.75188 176.563 1.61265 0
353 1 Si 132.963 37.4672 1.61688 0
354 1 Si 136.156 37.3175 1.58398 0
355 1 Si 15.498 4.69614 1.63101 0
356 1 Si 17.6904 7.36867 1.63853 0
357 1 Si 16.0029 10.2705 1.61733 0
358 1 Si 12.777 10.5146 1.62403 0
359 1 Si 16.6179 1.60829 1.62812 0
360 1 Si 12.4051 174.817 1.62395 0
361 1 Si 15.4242 176.079 1.62499 0
362 1 Si 148.607 33.3619 1.62394 0
363 1 Si 143.254 35.8148 1.64417 0
364 1 Si 146.384 35.6659 1.62463 0
365 1 Si 22.058 3.89862 1.63356 0
366 1 Si 21.219 7.17262 1.63538 0
367 1 Si 19.8235 1.50074 1.63 0
368 1 Si 25.0924 2.5656 1.63548 0
369 1 Si 27.7167 4.44289 1.61247 0
370 1 Si 29.0009 7.3683 1.63654 0
371 1 Si 23.8641 9.73946 1.63256 0
372 1 Si 27.5562 10.2217 1.62647 0
373 1 Si 25.5159 176.887 1.62041 0
374 1 Si 20.2525 175.903 1.62771 0
375 1 Si 23.1385 174.727 1.61321 0
376 1 Si 30.776 3.68721 1.60571 0
377 1 Si 32.123 6.55978 1.60119 0
378 1 Si 32.4574 1.07367 1.6192 0
379 1 Si 27.9756 174.796 1.62874 0
380 1 Si 31.0423 175.772 1.61355 0
381 1 Si 154.063 33.8412 1.62397 0
382 1 Si 151.246 35.2047 1.61634 0
383 1 Si 37.4056 4.2901 1.6313 0
384 1 Si 35.6961 1.34529 1.61686 0
385 1 Si 35.391 7.04813 1.63158 0
386 1 Si 42.5246 1.68811 1.63386 0
387 1 Si 45.6415 2.61245 1.62473 0
388 1 Si 40.8246 4.4414 1.62973 0
389 1 Si 46.6681 5.63303 1.61894 0
390 1 Si 43.462 6.57738 1.62605 0
391 1 Si 41.6661 176.106 1.63675 0
392 1 Si 48.0303 0.612722 1.62046 0
393 1 Si 44.1552 174.121 1.62257 0
394 1 Si 47.0355 175.262 1.61589 0
395 1 Si 38.967 174.196 1.62756 0
396 1 Si 36.0947 175.651 1.63126 0
397 1 Si 156.838 35.357 1.61679 0
398 1 Si 52.5084 4.0913 1.64324 0
399 1 Si 51.1828 1.04486 1.61084 0
400 1 Si 49.9759 6.41729 1.63433 0
401 1 Si 58.1752 1.70054 1.64991 0
402 1 Si 61.6166 0.870465 1.62472 0
403 1 Si 55.9593 4.67683 1.62896 0
404 1 Si 62.7118 6.55553 1.63891 0
405 1 Si 63.5971 3.37048 1.6316 0
406 1 Si 56.8566 8.2188 1.62869 0
407 1 Si 60.4795 9.02488 1.62924 0
408 1 Si 57.0347 176.23 1.62914 0
409 1 Si 62.0294 173.054 1.63436 0
410 1 Si 58.9948 173.804 1.62364 0
411 1 Si 63.7829 175.675 1.62785 0
412 1 Si 54.5285 174.147 1.63621 0
413 1 Si 51.6869 175.419 1.63242 0
414 1 Si 68.0242 5.13992 1.63736 0
415 1 Si 66.7562 2.3295 1.62231 0
416 1 Si 65.7551 7.33345 1.61696 0
417 1 Si 74.2107 5.19117 1.62176 0
418 1 Si 71.0774 5.85068 1.60987 0
419 1 Si 76.4086 7.65697 1.63133 0
420 1 Si 70.903 8.95209 1.61021 0
421 1 Si 73.9728 9.91774 1.63264 0
422 1 Si 75.1076 2.17147 1.62733 0
423 1 Si 72.3289 0.011833 1.62584 0
424 1 Si 78.6477 2.62362 1.63426 0
425 1 Si 78.9637 177.14 1.60009 0
426 1 Si 73.5352 174.622 1.6243 0
427 1 Si 76.644 175.054 1.60834 0
428 1 Si 68.9122 177.458 1.62737 0
429 1 Si 182.455 33.8871 1.63762 0
430 1 Si 181.152 36.896 1.62445 0
431 1 Si 178.05 36.4586 1.62214 0
432 1 Si 81.5734 4.64969 1.60814 0
433 1 Si 79.9294 7.65021 1.62287 0
434 1 Si 85.5876 4.4311 1.62754 0
435 1 Si 87.6514 7.2602 1.62466 0
436 1 Si 82.0115 10.4371 1.64575 0
437 1 Si 85.7248 10.1512 1.62905 0
438 1 Si 87.6417 1.61381 1.64869 0
439 1 Si 83.6505 174.331 1.62425 0
440 1 Si 80.6117 174.549 1.64383 0
441 1 Si 86.1807 176.273 1.60505 0
442 1 Si 189.059 32.1717 1.62746 0
443 1 Si 188.505 35.24 1.62932 0
444 1 Si 185.317 35.2704 1.60789 0
445 1 Si 94.1705 5.58665 1.62925 0
446 1 Si 91.2672 7.40589 1.61947 0
447 1 Si 94.336 2.36518 1.6305 0
448 1 Si 91.1629 1.12304 1.60627 0
449 1 Si 97.226 6.91412 1.61521 0
450 1 Si 92.9091 10.2663 1.63001 0
451 1 Si 96.1832 10.0103 1.61915 0
452 1 Si 97.4 0.664519 1.6225 0
453 1 Si 92.8002 175.865 1.6233 0
454 1 Si 96.0371 175.37 1.63719 0
455 1 Si 16.4799 13.5376 1.62015 0
456 1 Si 22.7527 12.8185 1.61242 0
457 1 Si 19.6738 14.156 1.62763 0
458 1 Si 36.5291 10.1869 1.62201 0
459 1 Si 30.2773 12.7248 1.62296 0
460 1 Si 34.2716 12.8014 1.62041 0
461 1 Si 43.4432 9.78141 1.63469 0
462 1 Si 39.9892 10.8309 1.59648 0
463 1 Si 201.906 35.4864 1.64754 0
464 1 Si 0.496763 35.6356 1.63295 0
465 1 Si 50.5185 9.70108 1.62122 0
466 1 Si 46.9922 10.8394 1.62799 0
467 1 Si 54.0712 10.792 1.63085 0
468 1 Si 125.625 40.2133 1.62717 0
469 1 Si 131.669 40.3581 1.63501 0
470 1 Si 128.592 41.2698 1.62671 0
471 1 Si 67.8113 9.67577 1.65189 0
472 1 Si 62.7161 11.9205 1.6307 0
473 1 Si 66.5206 12.5147 1.6353 0
474 1 Si 141.174 38.1473 1.55867 0
475 1 Si 162.343 36.9084 1.63412 0
476 1 Si 157.467 38.4569 1.62786 0
477 1 Si 160.491 39.4347 1.62753 0
478 1 Si 165.373 37.2469 1.61991 0
479 1 Si 73.4771 13.1222 1.6371 0
480 1 Si 76.637 14.609 1.6346 0
481 1 Si 80.2866 13.5209 1.63195 0
482 1 Si 196.416 36.6811 1.6151 0
483 1 Si 199.64 37.944 1.61236 0
484 1 Si 2.5709 38.1383 1.62745 0
485 1 Si 5.82012 37.8705 1.6277 0
486 1 Si 7.12454 35.0049 1.62815 0
487 1 Si 11.3834 13.4744 1.63183 0
488 1 Si 102.641 37.2665 1.62137 0
489 1 Si 13.7772 15.6357 1.62716 0
490 1 Si 123.362 42.7893 1.6265 0
491 1 Si 25.2139 15.0465 1.61066 0
492 1 Si 28.5723 15.6496 1.64055 0
493 1 Si 150.703 38.3283 1.62185 0
494 1 Si 147.603 38.5861 1.61982 0
495 1 Si 39.9916 14.0813 1.60341 0
496 1 Si 46.4723 14.0106 1.62587 0
497 1 Si 43.2354 14.9916 1.63422 0
498 1 Si 152.503 40.8747 1.64804 0
499 1 Si 155.637 40.9914 1.62098 0
500 1 Si 54.6735 14.3369 1.65014 0
501 1 Si 61.0981 14.8185 1.63518 0
502 1 Si 57.7858 15.7324 1.61213 0
503 1 Si 69.9171 14.1612 1.61411 0
504 1 Si 185.585 38.4142 1.63065 0
505 1 Si 182.781 39.7683 1.62337 0
506 1 Si 87.8017 12.9023 1.63674 0
507 1 Si 91.2599 13.1047 1.64001 0
508 1 Si 176.737 39.5355 1.6264 0
509 1 Si 98.1553 12.6607 1.62741 0
510 1 Si 19.9103 17.2851 1.61945 0
511 1 Si 23.0937 17.3581 1.63931 0
512 1 Si 36.7468 15.262 1.62634 0
513 1 Si 30.07 18.8315 1.63117 0
514 1 Si 36.2343 18.6282 1.63056 0
515 1 Si 33.1727 20.0013 1.6245 0
516 1 Si 133.388 43.0261 1.61842 0
517 1 Si 48.9053 16.2501 1.63225 0
518 1 Si 43.7326 18.0899 1.61375 0
519 1 Si 46.8421 18.6639 1.60052 0
520 1 Si 52.1719 16.7921 1.64182 0
521 1 Si 151.527 43.8352 1.60687 0
522 1 Si 63.1828 17.3711 1.60505 0
523 1 Si 57.7887 19.0327 1.62243 0
524 1 Si 60.8924 19.6497 1.61848 0
525 1 Si 161.53 42.4581 1.62016 0
526 1 Si 156.517 44.0513 1.63196 0
527 1 Si 159.499 45.0119 1.62262 0
528 1 Si 166.705 40.0687 1.61038 0
529 1 Si 164.774 42.7063 1.64011 0
530 1 Si 69.6101 17.535 1.62482 0
531 1 Si 66.3176 18.617 1.65388 0
532 1 Si 75.6671 17.8082 1.62324 0
533 1 Si 72.6785 19.3315 1.61386 0
534 1 Si 82.7045 15.8954 1.63736 0
535 1 Si 86.143 15.7563 1.63789 0
536 1 Si 93.2719 15.8517 1.62879 0
537 1 Si 96.6891 15.6621 1.61948 0
538 1 Si 200.558 41.3874 1.63446 0
539 1 Si 12.7498 18.9069 1.64692 0
540 1 Si 1.98791 41.3114 1.61929 0
541 1 Si 203.823 43.1147 1.65195 0
542 1 Si 102.726 43.3778 1.62382 0
543 1 Si 99.8663 38.7472 1.63232 0
544 1 Si 99.8995 41.9628 1.63451 0
545 1 Si 113.224 46.3699 1.62244 0
546 1 Si 116.662 46.3574 1.64065 0
547 1 Si 18.215 19.9621 1.63779 0
548 1 Si 15.2331 21.2295 1.63378 0
549 1 Si 23.661 20.3452 1.61793 0
550 1 Si 25.8176 22.5425 1.64031 0
551 1 Si 28.8469 21.9343 1.61298 0
552 1 Si 128.476 44.3924 1.62159 0
553 1 Si 131.392 45.3503 1.62389 0
554 1 Si 38.7443 20.9263 1.62943 0
555 1 Si 41.9744 20.7355 1.63572 0
556 1 Si 52.4636 20.1936 1.62358 0
557 1 Si 55.511 21.4234 1.63621 0
558 1 Si 153.943 45.8315 1.6102 0
559 1 Si 177.353 42.9388 1.65068 0
560 1 Si 183.173 43.0443 1.63189 0
561 1 Si 180.302 44.6439 1.62375 0
562 1 Si 171.709 43.6518 1.63459 0
563 1 Si 174.753 45.0184 1.64122 0
564 1 Si 78.1874 19.8188 1.6253 0
565 1 Si 81.268 18.8156 1.63448 0
566 1 Si 88.2591 18.3868 1.6273 0
567 1 Si 91.6125 18.7901 1.63909 0
568 1 Si 5.0168 42.5381 1.61554 0
569 1 Si 7.53402 40.5654 1.61761 0
570 1 Si 98.4411 18.4926 1.63104 0
571 1 Si 106.224 46.5988 1.61599 0
572 1 Si 102.975 46.5592 1.63592 0
573 1 Si 123.698 46.2214 1.63369 0
574 1 Si 126.772 46.9744 1.62386 0
575 1 Si 20.8205 21.6519 1.63607 0
576 1 Si 131.534 48.4549 1.62917 0
577 1 Si 134.465 49.5048 1.621 0
578 1 Si 33.0586 23.3023 1.6151 0
579 1 Si 38.3414 24.172 1.61468 0
580 1 Si 35.4395 25.3715 1.62003 0
581 1 Si 46.8591 21.8265 1.62647 0
582 1 Si 49.9831 22.5052 1.6278 0
583 1 Si 165.798 45.7791 1.62445 0
584 1 Si 160.101 48.228 1.63009 0
585 1 Si 163.456 48.2681 1.62381 0
586 1 Si 65.4981 21.7522 1.60258 0
587 1 Si 62.3531 22.3886 1.62176 0
588 1 Si 73.8152 22.5515 1.62521 0
589 1 Si 66.3537 24.8046 1.63708 0
590 1 Si 72.2858 25.4591 1.62978 0
591 1 Si 69.1593 26.1355 1.61356 0
592 1 Si 169.161 45.9937 1.63907 0
593 1 Si 77.0918 22.8461 1.60984 0
594 1 Si 83.3399 21.1621 1.63652 0
595 1 Si 86.5186 21.0507 1.65251 0
596 1 Si 93.2707 21.8514 1.6318 0
597 1 Si 96.5246 21.2552 1.62156 0
598 1 Si 0.0196555 46.5592 1.61347 0
599 1 Si 199.457 49.3468 1.65073 0
600 1 Si 202.844 49.4398 1.61845 0
601 1 Si 3.27371 47.6052 1.6213 0
602 1 Si 5.99811 45.5685 1.6221 0
603 1 Si 9.59425 25.719 1.63499 0
604 1 Si 15.1207 24.5968 1.625 0
605 1 Si 12.58 26.4061 1.62631 0
606 1 Si 111.348 49.0941 1.61659 0
607 1 Si 108.092 49.1287 1.625 0
608 1 Si 118.806 49.1594 1.63999 0
609 1 Si 122.242 49.2498 1.63708 0
610 1 Si 21.1093 24.686 1.60794 0
611 1 Si 24.1772 25.1815 1.60992 0
612 1 Si 30.2819 24.8891 1.61533 0
613 1 Si 128.602 49.6036 1.63367 0
614 1 Si 43.9757 23.3076 1.6416 0
615 1 Si 40.0145 27.0062 1.62801 0
616 1 Si 43.1892 26.5386 1.64334 0
617 1 Si 152.702 48.7009 1.6307 0
618 1 Si 55.8823 24.769 1.64391 0
619 1 Si 50.1943 25.7385 1.62172 0
620 1 Si 53.2947 26.6463 1.61765 0
621 1 Si 61.2754 25.3628 1.62956 0
622 1 Si 58.4412 26.8905 1.63176 0
623 1 Si 180.661 47.9933 1.63801 0
624 1 Si 175.198 48.3218 1.64377 0
625 1 Si 178.023 49.9798 1.64536 0
626 1 Si 183.552 49.5874 1.62839 0
627 1 Si 82.1228 24.0686 1.63457 0
628 1 Si 79.2057 25.2906 1.63664 0
629 1 Si 169.715 49.2231 1.63784 0
630 1 Si 172.707 50.3632 1.62739 0
631 1 Si 87.2952 24.0828 1.61928 0
632 1 Si 92.5445 25.362 1.62009 0
633 1 Si 89.4491 26.3777 1.63962 0
634 1 Si 98.4243 23.817 1.62543 0
635 1 Si 111.898 52.3014 1.63673 0
636 1 Si 117.731 52.3372 1.61475 0
637 1 Si 114.765 53.7843 1.62564 0
638 1 Si 8.6283 28.741 1.63053 0
639 1 Si 124.257 52.1656 1.63399 0
640 1 Si 127.612 52.6452 1.62904 0
641 1 Si 16.5383 27.6195 1.62172 0
642 1 Si 19.6048 27.394 1.63314 0
643 1 Si 134.992 52.6713 1.61824 0
644 1 Si 138.224 52.4651 1.61992 0
645 1 Si 29.8417 28.1803 1.64199 0
646 1 Si 35.4351 28.5873 1.61501 0
647 1 Si 32.5734 29.9798 1.6248 0
648 1 Si 154.617 51.1845 1.63837 0
649 1 Si 157.868 50.8306 1.6505 0
650 1 Si 48.2664 28.3493 1.61599 0
651 1 Si 53.5039 29.8397 1.62755 0
652 1 Si 50.4856 30.6614 1.62728 0
653 1 Si 164.335 51.3934 1.62991 0
654 1 Si 167.594 51.6796 1.62953 0
655 1 Si 63.9688 26.9726 1.61337 0
656 1 Si 73.4391 28.5143 1.62146 0
657 1 Si 68.5444 29.2393 1.61999 0
658 1 Si 71.1825 30.7717 1.61848 0
659 1 Si 194.676 51.7621 1.59184 0
660 1 Si 189.145 52.8941 1.61687 0
661 1 Si 194.137 54.8229 1.58053 0
662 1 Si 191.159 55.3503 1.63752 0
663 1 Si 197.795 52.1516 1.61786 0
664 1 Si 84.6657 25.7874 1.63581 0
665 1 Si 3.39095 50.9376 1.61331 0
666 1 Si 0.199553 52.2109 1.61173 0
667 1 Si 97.7663 27.0015 1.62031 0
668 1 Si 94.6654 28.1074 1.61668 0
669 1 Si 6.42008 52.5805 1.63344 0
670 1 Si 9.39144 45.0957 1.62896 0
671 1 Si 11.2836 47.837 1.62288 0
672 1 Si 9.81021 51.0414 1.62534 0
673 1 Si 106.601 51.9256 1.62 0
674 1 Si 109.09 53.9206 1.60329 0
675 1 Si 103.624 53.1736 1.62627 0
676 1 Si 100.335 48.5615 1.63854 0
677 1 Si 100.571 51.874 1.62075 0
678 1 Si 12.7222 29.5507 1.60849 0
679 1 Si 15.5482 30.7934 1.61553 0
680 1 Si 24.3001 28.2507 1.62353 0
681 1 Si 21.5649 29.8122 1.61225 0
682 1 Si 119.766 54.9397 1.62818 0
683 1 Si 123.056 55.2363 1.63694 0
684 1 Si 26.9878 29.7664 1.62349 0
685 1 Si 129.69 55.4009 1.62755 0
686 1 Si 133.102 55.371 1.64877 0
687 1 Si 38.3811 29.9391 1.62755 0
688 1 Si 45.1296 29.2393 1.64208 0
689 1 Si 140.056 55.1103 1.63752 0
690 1 Si 143.339 54.8136 1.62022 0
691 1 Si 149.623 54.0999 1.62108 0
692 1 Si 152.801 53.8615 1.624 0
693 1 Si 158.663 53.9835 1.61848 0
694 1 Si 161.923 53.6632 1.61409 0
695 1 Si 58.4629 30.2824 1.63114 0
696 1 Si 55.8159 32.1487 1.63266 0
697 1 Si 172.824 53.5833 1.61006 0
698 1 Si 169.676 54.1636 1.62028 0
699 1 Si 63.5563 30.1032 1.64321 0
700 1 Si 61.128 32.1469 1.63171 0
701 1 Si 178.06 53.3424 1.63599 0
702 1 Si 183.524 52.8904 1.62736 0
703 1 Si 180.925 54.882 1.64051 0
704 1 Si 78.9579 28.5361 1.62753 0
705 1 Si 76.1173 30.2203 1.63345 0
706 1 Si 175.473 55.4449 1.64208 0
707 1 Si 186.358 54.3312 1.63595 0
708 1 Si 84.6311 28.8867 1.62742 0
709 1 Si 81.6944 30.2707 1.61983 0
710 1 Si 87.8357 29.2512 1.62342 0
711 1 Si 107.572 56.7334 1.64472 0
712 1 Si 104.244 56.3842 1.62808 0
713 1 Si 114.931 57.0642 1.61241 0
714 1 Si 118.132 57.7281 1.62612 0
715 1 Si 10.2647 31.4244 1.61402 0
716 1 Si 124.885 58.1805 1.63266 0
717 1 Si 128.31 58.5126 1.63751 0
718 1 Si 135.05 58.1079 1.64063 0
719 1 Si 138.409 57.9635 1.64521 0
720 1 Si 148.576 57.2121 1.62646 0
721 1 Si 145.267 57.5728 1.62425 0
722 1 Si 153.588 56.9956 1.61511 0
723 1 Si 156.8 56.8173 1.62382 0
724 1 Si 44.5829 32.5796 1.64339 0
725 1 Si 50.1366 33.7673 1.62607 0
726 1 Si 47.1102 34.6108 1.61849 0
727 1 Si 66.3141 31.4135 1.62927 0
728 1 Si 162.772 56.636 1.65265 0
729 1 Si 168.954 57.2098 1.64283 0
730 1 Si 165.822 57.2237 1.59633 0
731 1 Si 94.5089 31.5417 1.64055 0
732 1 Si 88.6902 32.3248 1.64358 0
733 1 Si 91.7899 33.4074 1.6308 0
734 1 Si 97.2424 33.4925 1.63351 0
735 1 Si 197.157 55.2513 1.63456 0
736 1 Si 204.231 55.6539 1.643 0
737 1 Si 201.469 57.7979 1.59648 0
738 1 Si 198.249 58.1328 1.62047 0
739 1 Si 187.281 57.3321 1.6113 0
740 1 Si 190.298 58.3383 1.60334 0
741 1 Si 15.7104 34.0781 1.6278 0
742 1 Si 10.2855 34.5992 1.63771 0
743 1 Si 13.0954 36.2694 1.6295 0
744 1 Si 2.44091 57.2695 1.62076 0
745 1 Si 5.52289 55.8824 1.62537 0
746 1 Si 21.5759 32.9551 1.61871 0
747 1 Si 18.8901 34.9716 1.63949 0
748 1 Si 24.8287 32.2644 1.6192 0
749 1 Si 109.479 59.3659 1.64963 0
750 1 Si 112.825 59.555 1.63119 0
751 1 Si 32.3658 33.1196 1.63765 0
752 1 Si 26.3327 34.921 1.64894 0
753 1 Si 29.4052 34.1304 1.63232 0
754 1 Si 38.9427 33.3694 1.62396 0
755 1 Si 34.2275 35.6924 1.63855 0
756 1 Si 37.2527 36.4162 1.63114 0
757 1 Si 119.735 60.6099 1.61905 0
758 1 Si 123.09 61.0084 1.63398 0
759 1 Si 41.9483 34.5925 1.64176 0
760 1 Si 130.353 61.4948 1.62132 0
761 1 Si 133.64 61.0982 1.64247 0
762 1 Si 151.171 59.3016 1.62692 0
763 1 Si 55.4654 35.5485 1.65378 0
764 1 Si 52.301 36.1232 1.61505 0
765 1 Si 62.0307 35.2913 1.62361 0
766 1 Si 57.3717 38.4094 1.62495 0
767 1 Si 60.523 38.0633 1.62264 0
768 1 Si 160.941 59.1747 1.62705 0
769 1 Si 157.898 59.8696 1.62281 0
770 1 Si 67.208 34.4058 1.62503 0
771 1 Si 65.0063 36.6295 1.62399 0
772 1 Si 175.592 58.8301 1.63325 0
773 1 Si 180.897 58.1575 1.62808 0
774 1 Si 178.44 60.2415 1.62157 0
775 1 Si 70.3061 33.8428 1.63112 0
776 1 Si 170.537 60.0338 1.63421 0
777 1 Si 173.455 61.3833 1.61573 0
778 1 Si 75.2199 33.5189 1.62558 0
779 1 Si 72.6426 35.8913 1.62361 0
780 1 Si 186.071 60.1701 1.63177 0
781 1 Si 183.012 60.5541 1.6187 0
782 1 Si 80.6953 33.3637 1.62137 0
783 1 Si 77.9045 35.1549 1.63068 0
784 1 Si 83.1491 35.2639 1.63755 0
785 1 Si 86.2264 34.4136 1.62996 0
786 1 Si 107.43 61.7883 1.60706 0
787 1 Si 104.559 63.2719 1.63591 0
788 1 Si 101.526 58.3664 1.61747 0
789 1 Si 101.86 61.6691 1.61421 0
790 1 Si 200.153 60.9238 1.62044 0
791 1 Si 2.46992 60.553 1.63956 0
792 1 Si 0.370415 63.161 1.6084 0
793 1 Si 201.776 63.7136 1.62058 0
794 1 Si 114.548 62.3979 1.62511 0
795 1 Si 117.75 63.2469 1.62615 0
796 1 Si 140.344 60.6401 1.63103 0
797 1 Si 143.671 60.4928 1.61767 0
798 1 Si 165.753 60.2716 1.62256 0
799 1 Si 162.975 61.4314 1.63614 0
800 1 Si 168.178 62.079 1.6069 0
801 1 Si 47.3683 37.789 1.61855 0
802 1 Si 42.0633 37.9376 1.62763 0
803 1 Si 44.7877 39.5821 1.62011 0
804 1 Si 50.446 38.7277 1.62617 0
805 1 Si 191.173 61.3775 1.62197 0
806 1 Si 188.197 62.5285 1.6233 0
807 1 Si 196.857 61.0762 1.61796 0
808 1 Si 194.027 63.0369 1.63989 0
809 1 Si 97.3013 36.7947 1.63691 0
810 1 Si 92.1983 36.648 1.62169 0
811 1 Si 94.7089 38.6446 1.63755 0
812 1 Si 5.6742 61.0408 1.62229 0
813 1 Si 7.61401 58.3712 1.63359 0
814 1 Si 18.9198 38.2084 1.60734 0
815 1 Si 13.2752 39.6833 1.64031 0
816 1 Si 16.5372 40.4702 1.61086 0
817 1 Si 107.213 64.8601 1.56862 0
818 1 Si 112.646 64.8311 1.6099 0
819 1 Si 109.882 66.0697 1.61076 0
820 1 Si 24.5698 37.5893 1.6487 0
821 1 Si 21.9078 39.2754 1.62555 0
822 1 Si 29.7019 37.1163 1.61714 0
823 1 Si 27.2903 38.9289 1.62419 0
824 1 Si 124.419 64.1338 1.62478 0
825 1 Si 130.193 65.0501 1.63173 0
826 1 Si 127.164 66.0746 1.62684 0
827 1 Si 32.5174 38.2554 1.61105 0
828 1 Si 40.2514 40.679 1.61747 0
829 1 Si 37.1484 39.9602 1.63384 0
830 1 Si 135.598 63.7527 1.6286 0
831 1 Si 138.81 63.5127 1.62488 0
832 1 Si 151.15 62.7688 1.64504 0
833 1 Si 145.073 63.4074 1.61298 0
834 1 Si 148.158 64.424 1.61681 0
835 1 Si 157.149 62.9863 1.6365 0
836 1 Si 154.203 64.4013 1.61564 0
837 1 Si 51.1324 41.8421 1.61201 0
838 1 Si 54.1845 43.2251 1.62384 0
839 1 Si 57.303 41.831 1.61722 0
840 1 Si 65.6221 39.8248 1.63604 0
841 1 Si 62.4814 40.6449 1.61374 0
842 1 Si 162.908 64.4688 1.61457 0
843 1 Si 159.764 64.9462 1.63215 0
844 1 Si 173.976 64.8094 1.63586 0
845 1 Si 166.106 64.4659 1.6465 0
846 1 Si 167.811 67.0277 1.60869 0
847 1 Si 171.166 66.7746 1.6336 0
848 1 Si 71.6118 39.2458 1.63726 0
849 1 Si 68.6802 41.2748 1.64574 0
850 1 Si 179.155 63.4417 1.63261 0
851 1 Si 177.274 66.1252 1.6265 0
852 1 Si 182.317 63.7126 1.62776 0
853 1 Si 77.0589 38.318 1.61081 0
854 1 Si 74.6257 40.4456 1.62777 0
855 1 Si 82.2069 38.32 1.6308 0
856 1 Si 79.6579 40.1073 1.61748 0
857 1 Si 1.47557 66.2688 1.62398 0
858 1 Si 4.73224 66.8771 1.62737 0
859 1 Si 6.59723 64.1109 1.63208 0