LAMMPS data file via write_data, version 2 Aug 2023, timestep = 377, units = metal

15624 atoms
2 atom types

7.727489783082682 197.12494002881724 xlo xhi
6.564637040574449 170.99799267515812 ylo yhi
-100 100 zlo zhi

Masses

1 28.085
2 15.999

Atoms # full

9359 1 2 0 10.030275457375717 8.254324027946627 -2.1750014292421 0 0 0
6651 1 1 0 9.706958459590124 9.822882785872995 -1.646482482844321 0 0 0
9355 1 2 0 8.187163210157669 10.23016836535048 -2.1945456802940506 0 0 0
9360 1 2 0 10.751516639073115 11.035042417056923 -2.177273524259133 0 0 0
6654 1 1 0 12.072859717630173 11.93305161190913 -1.6476042490049922 0 0 0
6652 1 1 0 10.185206126286685 6.662336908631325 -1.6465887562507389 0 1 0
13164 1 2 0 12.009955099933531 12.005950184865732 -1.7569430621542008e-07 0 0 0
9365 1 2 0 13.372990005366328 11.088507629177789 -2.206966884112981 0 0 0
6660 1 1 0 15.467325676108008 7.5520273799150734 -1.6475466451248237 0 0 0
9373 1 2 0 15.016394592168067 9.054145383354397 -2.1883982048927244 0 0 0
9376 1 2 0 17.047492289950124 7.334385379443679 -2.1965609098264935 0 0 0
6868 1 1 0 18.396519519969452 8.153598343641951 -1.6387549828987922 0 0 0
6659 1 1 0 14.850578328033167 10.613019415914703 -1.647308977768249 0 0 0
9374 1 2 0 15.978970058333159 11.648714362723222 -2.2818488663815835 0 0 0
9688 1 2 0 18.31652686824945 9.72360586283661 -2.177184556017728 0 0 0
13169 1 2 0 14.886716088428335 10.624602134123709 -4.2797551478518046e-07 0 0 0
13170 1 2 0 15.440062658039936 7.483631779520095 -5.316872854615847e-07 0 0 0
9690 1 2 0 19.92495746728713 7.817885820045222 -2.206855163866038 0 0 0
6875 1 1 0 21.16121314930541 6.874414118109707 -1.6420525695002461 0 1 0
9700 1 2 0 22.681410184298578 7.136941034202412 -2.231915486759626 0 1 0
9698 1 2 0 24.14936453648509 9.256348760679876 -2.273258131996873 0 0 0
6874 1 1 0 24.13054275283447 7.726166174137858 -1.6504020898495282 0 0 0
6867 1 1 0 19.35253683029865 10.888750030928161 -1.6089950585240407 0 0 0
9689 1 2 0 20.861149720818666 11.133643634097487 -2.2544062731024868 0 0 0
6873 1 1 0 24.400883122112486 10.751771960713938 -1.6291154317895995 0 0 0
9692 1 2 0 23.359018907192535 11.915788952441451 -2.212374301508044 0 0 0
13385 1 2 0 21.23142204564829 6.927627661844102 -1.2368281754201893e-06 0 1 0
13377 1 2 0 19.548701421999283 10.590235265638572 -5.233383881671153e-07 0 0 0
13383 1 2 0 24.226073814750638 10.643663006425722 -1.5900351917312976e-07 0 0 0
9701 1 2 0 25.455949261387463 6.881162756851609 -2.203834204681035 0 0 0
9712 1 2 0 28.263171001721307 6.890004238191611 -2.2205398201433884 0 0 0
6882 1 1 0 29.396813610832506 7.967609565267545 -1.6222093712287844 0 0 0
9699 1 2 0 25.955715295370734 11.104333322152723 -2.0521651414572406 0 0 0
6881 1 1 0 29.461667829092132 10.926797646133851 -1.6302289412506576 0 0 0
9710 1 2 0 28.785549370363498 9.462220808211535 -2.006055911669326 0 0 0
9713 1 2 0 30.96671799962606 7.974954999775086 -2.209063588371653 0 0 0
6889 1 1 0 32.51340129761494 7.640077826451666 -1.644860061222107 0 0 0
9722 1 2 0 33.85167232926231 8.546329742125844 -2.151413713266943 0 0 0
6888 1 1 0 34.806962544593816 9.86443536633388 -1.6475882613565174 0 0 0
9716 1 2 0 33.844939801165715 11.152619403177148 -2.178122045354746 0 0 0
9711 1 2 0 31.02427303320068 10.88879900474215 -2.212827498509836 0 0 0
6884 1 1 0 32.35869629010981 11.715787617516648 -1.6449242376725575 0 0 0
13394 1 2 0 32.44085008831754 11.677244001256943 -4.628916116584143e-07 0 0 0
6894 1 1 0 40.15028491488988 7.7942386560101005 -1.64803219924475 0 0 0
9723 1 2 0 36.45316194329416 10.01422688642226 -2.155984676191158 0 0 0
6890 1 1 0 38.103335590280146 10.217246033146166 -1.6457404453997626 0 0 0
9726 1 2 0 39.18681585212488 9.053346317188394 -2.1773281570841205 0 0 0
9725 1 2 0 38.9668627827203 11.57529804899533 -2.1477235056656503 0 0 0
13400 1 2 0 38.003239946954295 10.224214135212316 -9.243637181042775e-08 0 0 0
9733 1 2 0 41.75313593946031 7.628422611625842 -2.1732436643031945 0 0 0
6908 1 1 0 42.98596471803132 6.590374481668942 -1.64536326018789 0 1 0
9755 1 2 0 44.56482871648308 6.744516829770581 -2.1869180075700867 0 0 0
6907 1 1 0 46.15499567368628 6.8286633884466585 -1.6411308975184808 0 0 0
9751 1 2 0 46.521704263414144 10.912302780989714 -2.2221856315146504 0 0 0
9752 1 2 0 46.60799062516769 8.304102306335661 -2.2074742130733145 0 0 0
13418 1 2 0 42.98879567852215 6.726216783128427 -4.6700761407633834e-07 0 1 0
9759 1 2 0 51.36525682404215 8.168386874131853 -2.2139408234849824 0 0 0
6905 1 1 0 47.397648142687615 9.628081764373006 -1.644731104520152 0 0 0
9753 1 2 0 48.947010266022204 9.508645458050285 -2.2287285422078082 0 0 0
6909 1 1 0 50.50084798852625 9.476342135905305 -1.6446055896527043 0 0 0
9758 1 2 0 51.19773231268123 10.889402398559433 -2.1679181575200115 0 0 0
13415 1 2 0 47.451497702433606 9.685043031967432 -3.950924232417696e-07 0 0 0
6917 1 1 0 52.502859394316985 7.0770962990123545 -1.646543378857214 0 0 0
9771 1 2 0 54.004535512665434 7.493167461285788 -2.212389004780959 0 0 0
6919 1 1 0 55.4713734236103 8.03151130760607 -1.6467453857133298 0 0 0
9776 1 2 0 56.61351036750806 6.8993517758720495 -2.1655669520793444 0 0 0
9773 1 2 0 55.58358071559086 9.629524971432973 -2.1734306269537953 0 0 0
6918 1 1 0 55.91411932251512 11.200212669113531 -1.6444372643822713 0 0 0
9775 1 2 0 57.464065252032285 11.48291538572508 -2.1820971517593732 0 0 0
13427 1 2 0 52.477600409849586 7.1002376420056805 -6.200333982439466e-07 0 0 0
13429 1 2 0 55.526971280353706 8.05184951199952 3.9166536772817555e-08 0 0 0
9781 1 2 0 59.24755300378371 6.949136741525319 -2.1989622958714192 0 0 0
6923 1 1 0 60.13011922237876 8.233384693547231 -1.6454238721101353 0 0 0
9782 1 2 0 61.66277619687893 7.995481641074574 -2.213996720644611 0 0 0
6931 1 1 0 63.12281987029634 7.45379036766059 -1.6476215905426552 0 0 0
9779 1 2 0 59.52681078005482 9.665838880900186 -2.2276609053694694 0 0 0
6922 1 1 0 58.99348930432953 11.129546448984097 -1.646408000942031 0 0 0
13433 1 2 0 60.118104081009626 8.263176587743018 -2.587492138481272e-07 0 0 0
9792 1 2 0 64.2399492205807 8.574737446845576 -2.20687630827057 0 0 0
9791 1 2 0 63.73408815386188 11.28685241129598 -2.1147834348948655 0 0 0
6929 1 1 0 64.75419068147681 10.059745438268862 -1.6419577806914616 0 0 0
9793 1 2 0 66.21424482832329 10.544918163643207 -2.2667547725730746 0 0 0
6932 1 1 0 67.71085945937654 10.845639403339463 -1.6268581879276047 0 0 0
9797 1 2 0 68.52141079804105 9.511290996709338 -2.075720413244863 0 0 0
13439 1 2 0 64.842128063241 9.949110624619323 -1.1928499899185657e-06 0 0 0
9801 1 2 0 69.43156982074132 7.192732269954964 -2.301287464001646 0 0 0
6935 1 1 0 69.82849554577581 8.64917988422101 -1.633572062529603 0 0 0
6945 1 1 0 73.50512980853632 7.050848576271665 -1.6367147137344038 0 0 0
9812 1 2 0 73.66192290695653 8.584395052689327 -2.166093089418773 0 0 0
9802 1 2 0 71.14041399988945 9.444112997220664 -2.27575779777387 0 0 0
6941 1 1 0 72.63064746976613 9.765103757998206 -1.6381272491139214 0 0 0
9811 1 2 0 73.42979897404199 11.097090912905184 -2.2012650288005493 0 0 0
13451 1 2 0 72.48003860731171 9.858423632361353 -4.050778944941659e-07 0 0 0
6948 1 1 0 79.69421451495506 8.035462379990038 -1.648870321129427 0 0 0
9814 1 2 0 76.19266985316526 10.463220021300339 -2.2150962252968545 0 0 0
6947 1 1 0 77.75102074003114 10.363381040707528 -1.6504823308578436 0 0 0
9821 1 2 0 78.4786690896407 8.989699841619844 -2.2480808768154623 0 0 0
6942 1 1 0 74.96783528374078 11.438102806222172 -1.6488408302073647 0 0 0
9822 1 2 0 78.58468532341001 11.692951257086868 -2.212965739125935 0 0 0
13457 1 2 0 77.74027061549019 10.33582543466389 -6.997059049335461e-07 0 0 0
13452 1 2 0 74.97349822780025 11.395132514964052 -6.552904312511295e-07 0 0 0
9824 1 2 0 81.17382384627597 8.449485750223406 -2.2673636838175213 0 0 0
6957 1 1 0 82.59340138992924 8.121092384163179 -1.4883618792317765 0 0 0
9838 1 2 0 83.69907478621771 7.242236469875691 -2.3402614030302966 0 0 0
9836 1 2 0 83.27322353708388 9.59210392414156 -1.3059143737465333 0 0 0
6956 1 1 0 82.7024953541667 11.115591020452822 -1.4959841628305606 0 0 0
9837 1 2 0 83.90436108763812 11.738614644398877 -2.418503387026607 0 0 0
9829 1 2 0 81.21444240489443 11.29477724008353 -2.182150864136264 0 0 0
13467 1 2 0 82.29889637300428 7.412356306300332 -4.4149668899752225e-07 0 0 0
13466 1 2 0 82.6199423343469 11.847226465707159 -6.886078721320069e-09 0 0 0
13470 1 2 0 85.35213161168656 11.977760504408453 -2.972472574535836e-07 0 0 0
6959 1 1 0 87.78284057549469 7.078935928373095 -1.6524566990568876 0 0 0
6958 1 1 0 87.623790040812 10.10441875753816 -1.5607696459681373 0 0 0
9839 1 2 0 87.74334813447953 8.615800613611862 -2.280353558123388 0 0 0
9841 1 2 0 89.15775723587811 10.65352974974854 -1.67467304909523 0 0 0
9840 1 2 0 86.55616751123785 11.181722774577187 -2.260409105440668 0 0 0
6963 1 1 0 90.25037012133515 11.870161476949008 -1.5589159523069105 0 0 0
6968 1 1 0 94.53069004004911 7.703351970100383 -1.6478552022424349 0 0 0
9858 1 2 0 96.11869281464855 7.538225179924151 -2.1881506438865284 0 0 0
6962 1 1 0 92.95397275203428 10.345545806017784 -1.5786082135553536 0 0 0
9846 1 2 0 91.62011181586259 11.145431611020708 -2.2339161569372616 0 0 0
9848 1 2 0 93.55368667510164 8.929116328049918 -2.24398102370612 0 0 0
9847 1 2 0 94.31702954198879 11.252221318575787 -1.762974557021036 0 0 0
13066 1 2 0 102.28555908398636 10.336172551830003 -2.958910532902509e-08 0 0 0
6978 1 1 0 97.67627766424728 7.164089550805921 -1.6477066258793283 0 0 0
9870 1 2 0 98.77089932637853 8.28977287811977 -2.2003124842417505 0 0 0
6977 1 1 0 99.27469316391222 9.775018612490435 -1.6421845385690947 0 0 0
9866 1 2 0 98.03225711336441 10.77670467071402 -2.1107119830781147 0 0 0
9198 1 2 0 100.78026612278322 10.251686965322556 -2.2245457474465735 0 0 0
13488 1 2 0 97.60359702270377 7.131740010089034 -4.2172367984535386e-07 0 0 0
6556 1 1 0 102.34354380614712 10.074316078321223 -1.6281460640144851 0 0 0
9364 1 2 0 12.27018817412706 13.539011721534063 -2.1860800548827126 0 0 0
6655 1 1 0 8.217322434650164 16.156913940830837 -1.6442101232259987 0 0 0
9366 1 2 0 9.794302602115911 16.4759588474448 -2.1145411066420756 0 0 0
6657 1 1 0 13.27529535374405 14.739658197456778 -1.5683451415552354 0 0 0
13165 1 2 0 8.150662079753257 16.09290575886036 -5.178034408188541e-07 0 0 0
9686 1 2 0 18.59674112087696 12.284174805964556 -1.9732681982333693 0 0 0
6865 1 1 0 17.06167222084258 12.728072494910695 -1.622796200533975 0 0 0
9371 1 2 0 14.850628022934302 14.258568492678952 -1.7916586133674948 0 0 0
6866 1 1 0 16.14795407293918 15.348713011942603 -1.604958615849346 0 0 0
9685 1 2 0 17.238633454958403 14.27745605322556 -2.2178639137915575 0 0 0
9370 1 2 0 13.55907231737411 16.27448866350971 -2.224731657944212 0 0 0
9687 1 2 0 16.587194719504307 16.836148553944387 -2.2594593905216978 0 0 0
13376 1 2 0 16.15659221944337 15.722919479988672 -9.354035916087521e-07 0 0 0
6869 1 1 0 21.843167092631337 12.343148777689082 -1.6495504519544537 0 0 0
9691 1 2 0 21.296498759856412 13.870817927718184 -2.086179422376231 0 0 0
6870 1 1 0 22.096103015901548 15.286319031034509 -1.6461462116858585 0 0 0
9694 1 2 0 23.577975923340777 14.925326517163798 -2.3241177645014846 0 0 0
9693 1 2 0 21.482197177566245 16.74806773116021 -2.207485276643992 0 0 0
9708 1 2 0 28.43435953222739 12.093647090008284 -2.254188678139527 0 0 0
6879 1 1 0 26.913071448330708 12.385315465522671 -1.6313950473807073 0 0 0
9707 1 2 0 26.152097554142674 13.72587895796264 -2.263571468664596 0 0 0
6880 1 1 0 24.99067718911013 14.647294944956563 -1.5077837742015354 0 0 0
9709 1 2 0 25.530143718440623 16.16478681973206 -1.3450298675145713 0 0 0
6886 1 1 0 26.678813817773264 17.289714832984522 -1.5164311622093547 0 0 0
9719 1 2 0 27.9479640552732 16.49245329895618 -2.3041546777229884 0 0 0
6887 1 1 0 29.419442987165 16.3899837552759 -1.4954919468542454 0 0 0
9715 1 2 0 31.97246063338708 13.226963290964397 -2.1904602613716264 0 0 0
9717 1 2 0 30.73597966263594 15.627732223204935 -2.2116303207642733 0 0 0
6885 1 1 0 32.074831230159795 14.773121729745533 -1.6413860116895769 0 0 0
9718 1 2 0 33.60131571807621 15.145683927150584 -2.194298705119441 0 0 0
6893 1 1 0 34.84091103783424 16.10273069082432 -1.6417912263367458 0 0 0
13395 1 2 0 32.06390677745104 14.935485424833729 -3.781649666218729e-07 0 0 0
6891 1 1 0 39.83554464427408 12.924917690278257 -1.6438837217234106 0 0 0
9729 1 2 0 36.364236185637715 15.662913505598384 -2.2124366858171993 0 0 0
6892 1 1 0 37.93802260829714 15.441705795838708 -1.6476948034110128 0 0 0
9727 1 2 0 38.76588788203055 14.096828898632298 -2.164197311267734 0 0 0
9730 1 2 0 38.91431889140595 16.634724456653064 -2.2718015740479336 0 0 0
6906 1 1 0 45.88603813385956 12.335152837273847 -1.6433293747317181 0 0 0
13416 1 2 0 45.85890805000379 12.316262275258962 -1.5818599903357592e-07 0 0 0
9728 1 2 0 41.457264529791765 13.18178284399792 -2.174964919891172 0 0 0
6901 1 1 0 43.047080069633154 13.5597785428526 -1.6471858622757642 0 0 0
9745 1 2 0 44.29312308371115 12.528254479133418 -2.153837158837629 0 0 0
9744 1 2 0 43.632322530314084 15.05063557462025 -2.191042791607178 0 0 0
6902 1 1 0 44.75146326377982 16.133094959908565 -1.5643574750467306 0 0 0
9747 1 2 0 46.227770306163954 16.38117676542365 -2.2926264088631063 0 0 0
13412 1 2 0 44.999104606322106 15.637420077890885 -2.7937280905530163e-07 0 0 0
9748 1 2 0 41.696151371641065 17.384931174202624 -2.110255260337143 0 0 0
9754 1 2 0 46.93661333421495 13.525947990715775 -2.179563785363352 0 0 0
9760 1 2 0 49.6924494402419 13.18342834404427 -2.250544163523395 0 0 0
6910 1 1 0 51.064827906057 12.461709740992339 -1.6464608358903094 0 0 0
6911 1 1 0 48.425663752148466 14.074447878344433 -1.63850019020835 0 0 0
9762 1 2 0 48.678665888752036 15.664582599405762 -2.0767500684870797 0 0 0
6987 1 1 0 47.6693011470005 16.931232847716423 -1.6455248746846143 0 0 0
13497 1 2 0 47.55198141094823 17.066483632668085 1.474435195801062e-07 0 0 0
9761 1 2 0 52.399734803911684 13.251870599030333 -2.2149647590798502 0 0 0
9774 1 2 0 54.971497362119194 12.504707780131808 -2.168485741761202 0 0 0
6920 1 1 0 53.88901615464233 13.71410319159016 -1.6461833793392944 0 0 0
9777 1 2 0 54.00847679540027 15.322437668340251 -2.1601782838672947 0 0 0
6926 1 1 0 54.27167614694952 16.920521822189496 -1.6458983644315377 0 0 0
9786 1 2 0 55.83617544450701 17.14367107763549 -2.1758314524317575 0 0 0
13430 1 2 0 53.98203011644029 13.723221120215337 -6.663415192473561e-07 0 0 0
9780 1 2 0 59.98827779146601 12.314669123366908 -2.233543041813013 0 0 0
6925 1 1 0 60.84229281207154 13.604304729340308 -1.6467128897843688 0 0 0
9785 1 2 0 62.39801244752039 13.565268260110432 -2.2248175559007786 0 0 0
9784 1 2 0 60.128430304710754 14.991856230414365 -2.194059405263262 0 0 0
9788 1 2 0 58.617993690446035 17.186355536580916 -2.2158136324707915 0 0 0
6927 1 1 0 60.05280498431235 16.553587338938875 -1.6468678762048343 0 0 0
9789 1 2 0 61.42286369497838 17.307178996536233 -2.2279110349273683 0 0 0
13435 1 2 0 60.85048862967588 13.578466496962104 -9.404193392011597e-09 0 0 0
9796 1 2 0 68.60064128574732 12.10209250365658 -2.2433202819487503 0 0 0
6930 1 1 0 63.78854092202334 12.880890260969009 -1.6422986373630126 0 0 0
9794 1 2 0 65.12688866592558 13.681812919495119 -2.23158384293926 0 0 0
6934 1 1 0 66.22309086125262 14.792379718493946 -1.6439083926410163 0 0 0
9798 1 2 0 67.78122479231338 14.56560173735837 -2.1602682691261546 0 0 0
9800 1 2 0 65.85326679540131 16.274580072767534 -2.2450973581795406 0 0 0
13444 1 2 0 66.1741302638125 14.764956160975013 -1.0963244971876496e-06 0 0 0
13440 1 2 0 63.82442157175965 12.976779257632971 -2.343359125491363e-07 0 0 0
6933 1 1 0 69.01947259922841 13.592427474702756 -1.6434562907623076 0 0 0
9799 1 2 0 70.50004584815062 14.10208176838745 -2.218665794614756 0 0 0
6944 1 1 0 71.72707432136978 15.091292802973364 -1.6471578342404312 0 0 0
9815 1 2 0 73.24527119663328 14.708126850180413 -2.214883461370278 0 0 0
9817 1 2 0 71.42357132154478 16.611770638694527 -2.213182527841318 0 0 0
13454 1 2 0 71.7284836922399 15.034895618124745 -3.6762244933135316e-08 0 0 0
6951 1 1 0 80.01061920638556 12.306518339927646 -1.6393691143735398 0 0 0
6943 1 1 0 74.78635001551592 14.421187811647906 -1.6438069236868258 0 0 0
9813 1 2 0 75.2608110618195 12.95047263455144 -2.2081725788418782 0 0 0
9816 1 2 0 76.0073638594098 15.377873387066282 -2.227363204371677 0 0 0
6953 1 1 0 77.28101068008397 16.267700768382344 -1.6453589781415008 0 0 0
9830 1 2 0 78.80773764520842 15.913254883262754 -2.2034987191992514 0 0 0
6960 1 1 0 85.32108751143953 12.121176079155786 -1.6490549785724438 0 0 0
6952 1 1 0 80.27239023057383 15.343717136686811 -1.6456017702353705 0 0 0
9828 1 2 0 80.34902346972162 13.800901429373411 -2.2410620686393727 0 0 0
6996 1 1 0 85.66735981322886 15.234072891087129 -1.6182563632587914 0 0 0
9844 1 2 0 85.29257568340981 13.706100698436469 -2.063148909800048 0 0 0
9831 1 2 0 81.63143647617963 16.139396922355605 -2.195512627408276 0 0 0
6997 1 1 0 82.99885675166514 16.947839737855404 -1.64965434245814 0 0 0
9894 1 2 0 84.44036659585872 16.247890138421607 -2.2038779860197732 0 0 0
13462 1 2 0 80.28111158110137 15.399545073509405 -1.1716995928703212e-07 0 0 0
13506 1 2 0 85.71298990378405 15.554211768976835 -2.2495539179378706e-07 0 0 0
13473 1 2 0 90.63594996368103 12.309366913871688 -1.9942893196960443e-07 0 0 0
9849 1 2 0 89.4574009529581 13.205289727387807 -2.242164851418922 0 0 0
9855 1 2 0 87.25274616254364 15.23967040275069 -2.20292903710823 0 0 0
6966 1 1 0 88.58447659608119 14.46151201538422 -1.5148520152905713 0 0 0
9854 1 2 0 89.62800318787869 15.694018218104167 -1.4309947631572424 0 0 0
6967 1 1 0 90.68210273764939 16.919100679518923 -1.5157746829701932 0 0 0
13477 1 2 0 91.15608017751232 17.40489232818193 -7.476790678216183e-07 0 0 0
6964 1 1 0 94.71241809832401 12.830408225397 -1.5769537694061246 0 0 0
9851 1 2 0 96.24833992289304 12.89940873886115 -2.2690886319129264 0 0 0
9852 1 2 0 91.99160767543822 16.22273984428409 -2.308611184853444 0 0 0
6965 1 1 0 93.1352047071216 15.20040381408509 -1.6570282539791314 0 0 0
9850 1 2 0 93.27395791317348 13.585610245518977 -2.0809487416357326 0 0 0
9853 1 2 0 94.61729263129646 15.56717948706528 -2.342084468228635 0 0 0
6976 1 1 0 95.51684389155825 16.639700500847756 -1.5149905349088741 0 0 0
13486 1 2 0 95.88165743325678 16.058141175746016 -2.6371923600843715e-07 0 0 0
13475 1 2 0 93.04172005599682 15.387388984536615 1.290800336606064e-10 0 0 0
9868 1 2 0 96.85323344648037 17.01673275507483 -2.3855876885656198 0 0 0
6973 1 1 0 97.70215806030603 12.339774896971667 -1.6562872841573353 0 0 0
9865 1 2 0 99.03640017259083 13.115205856483524 -2.3089039864384993 0 0 0
6974 1 1 0 99.77595426222697 14.34412388512145 -1.4875767365410637 0 0 0
9867 1 2 0 98.54807452722606 15.411880811172777 -1.3425783621624523 0 0 0
9410 1 2 0 101.04902790313177 15.134020079871764 -2.2146286538841924 0 0 0
6975 1 1 0 98.23593205471532 17.005993652618514 -1.5021582128182787 0 0 0
13484 1 2 0 100.27906695843443 13.772017822954027 -5.3760691890283e-07 0 0 0
6656 1 1 0 10.48660344291876 17.929383971941448 -1.643993230094919 0 0 0
9368 1 2 0 11.973537649320017 18.179124786528735 -2.2574237553184684 0 0 0
13166 1 2 0 10.508437214944623 17.94855821120981 -2.3064696226507754e-07 0 0 0
9369 1 2 0 9.75937414567243 19.26606740417004 -2.274283493277079 0 0 0
6719 1 1 0 9.06314850224564 20.60500909646439 -1.6194999640518473 0 0 0
9466 1 2 0 9.581704334735074 22.00876601695657 -2.294275393685391 0 0 0
6658 1 1 0 13.456031246287637 17.846614754098432 -1.645073461639543 0 0 0
6871 1 1 0 17.579407975196723 18.054821220110956 -1.6482752269951588 0 0 0
13168 1 2 0 13.60047519840915 17.838709856311688 -4.972443427370713e-07 0 0 0
9372 1 2 0 14.36592990890854 19.12196791678879 -2.2111383878246453 0 0 0
7005 1 1 0 15.513797304467639 20.208217369658083 -1.6405557589701136 0 0 0
9696 1 2 0 16.951765597016927 19.52450021277064 -2.126029287002832 0 0 0
9907 1 2 0 15.429699144081606 21.790740187351222 -2.2020057291348016 0 0 0
9695 1 2 0 19.138020043268696 18.01277697962771 -2.226434676540149 0 0 0
6872 1 1 0 20.700254434285068 18.141405017483567 -1.6490433284962673 0 0 0
9697 1 2 0 21.31704157819488 19.64054017001289 -2.139670563243567 0 0 0
9908 1 2 0 23.777016456668537 20.633055695348975 -2.1884813741982905 0 0 0
9910 1 2 0 21.59833859447656 22.548031952576665 -2.1442701118945857 0 0 0
7007 1 1 0 22.209402850334143 21.000725715944306 -1.648937603794956 0 0 0
13517 1 2 0 22.203502146584096 21.07076244766987 -4.897597696656798e-07 0 0 0
9721 1 2 0 29.63774991741105 17.99438496410553 -1.282195501687697 0 0 0
13396 1 2 0 27.19697930022649 17.79544688563426 -2.837523511765626e-07 0 0 0
7006 1 1 0 25.231729749406007 19.980535616932496 -1.6392352730527384 0 0 0
9720 1 2 0 25.81068685599341 18.52357225409592 -2.2435244283534552 0 0 0
9914 1 2 0 29.261365674527585 20.457359748191607 -2.234896132359744 0 0 0
9909 1 2 0 26.44951844418386 20.982991864063717 -2.1318695245292454 0 0 0
7011 1 1 0 27.982433949839805 21.365736491069434 -1.6430354322348963 0 0 0
9916 1 2 0 28.073683945764085 22.890111379575593 -2.2583587653959767 0 0 0
13521 1 2 0 28.0704729602361 21.330259690702704 -4.606133187114092e-07 0 0 0
13516 1 2 0 25.062525205298712 19.861092437521904 -5.696158126911559e-07 0 0 0
9731 1 2 0 34.30414025353789 17.573850481299015 -2.1928598815029785 0 0 0
7010 1 1 0 30.35082274462792 19.4380595507134 -1.4805234705476118 0 0 0
9915 1 2 0 31.74013016740442 18.992394487683445 -2.2811942708113806 0 0 0
7012 1 1 0 33.26714081187852 18.74790548655714 -1.6553493909712085 0 0 0
9917 1 2 0 33.99964529007173 20.038913224438293 -2.3552720131352407 0 0 0
9921 1 2 0 33.42593819125486 22.71096400756466 -2.052181065198743 0 0 0
7014 1 1 0 34.36813840761647 21.431721249164053 -1.6373397810918078 0 0 0
13522 1 2 0 33.181772257028136 18.62112131027118 1.41981171784435e-07 0 0 0
6903 1 1 0 40.107978484499974 17.569607427996342 -1.6433679988519636 0 0 0
9920 1 2 0 35.76782986407628 21.866659312053685 -2.3855155601775824 0 0 0
9749 1 2 0 39.870209652219444 19.033889946653886 -2.3663160287609224 0 0 0
7013 1 1 0 39.486011880455806 20.410509884402988 -1.6197799380117126 0 0 0
7015 1 1 0 37.18750461356814 21.97293060896216 -1.607234135025961 0 0 0
9918 1 2 0 37.88284249319894 20.54115680736849 -1.938288956175662 0 0 0
9919 1 2 0 40.16026673332351 21.706155036456185 -2.380236934721003 0 0 0
7017 1 1 0 40.84889540329346 22.90231094896168 -1.4904007838202742 0 0 0
9746 1 2 0 44.214128215891336 17.686357548816904 -1.678732846122109 0 0 0
6904 1 1 0 42.81924140746651 18.508751859969184 -1.5519366843446758 0 0 0
9750 1 2 0 43.11511898599458 19.994428903244273 -2.270433743097218 0 0 0
9923 1 2 0 42.39418301528586 22.443349053141667 -1.2891386005609484 0 0 0
7016 1 1 0 43.623210974373514 21.388020565895033 -1.4934495104949912 0 0 0
9924 1 2 0 44.680897126927064 22.365880282928977 -2.313533517229997 0 0 0
9883 1 2 0 48.198197114940456 18.422437047005868 -2.2138059932349026 0 0 0
6989 1 1 0 49.219765051064115 19.641373232232315 -1.6383091008993715 0 0 0
9884 1 2 0 50.73115732716655 19.089735821155024 -2.0748616631085675 0 0 0
6988 1 1 0 52.28083672204406 19.511004613826685 -1.6309933268217653 0 0 0
9886 1 2 0 48.98951002667035 21.222656940154632 -2.2022162979445463 0 0 0
7051 1 1 0 48.586606992194675 22.768407187078544 -1.6365414537415846 0 0 0
9787 1 2 0 53.28428118103813 18.224218232670662 -2.1679836278372298 0 0 0
6928 1 1 0 57.2173248143787 17.889684318995002 -1.6470003122784431 0 0 0
9790 1 2 0 57.07320364066418 19.42014640456006 -2.2605265688572267 0 0 0
9885 1 2 0 52.363766361325894 21.12549064321731 -2.1598049796581553 0 0 0
7021 1 1 0 52.58386474850345 22.733955936733025 -1.6415334266910577 0 0 0
9929 1 2 0 56.53246545892392 22.084888658736045 -2.2558897506921025 0 0 0
7020 1 1 0 57.48167541004979 20.883349502774358 -1.6387520821212194 0 0 0
13530 1 2 0 57.325353726693706 20.869469014055724 -2.225442290472381e-07 0 0 0
13501 1 2 0 62.632338525976486 18.18727181508711 1.1479958938387414e-07 0 0 0
6991 1 1 0 62.58162742882158 18.34012352305654 -1.6386061759089536 0 0 0
9889 1 2 0 62.06205117630781 19.82103601396166 -2.1496461430058758 0 0 0
9930 1 2 0 59.054040922076844 21.10899524893906 -2.1111048551358174 0 0 0
7025 1 1 0 59.89918947294823 22.443619306494202 -1.6390752763268206 0 0 0
9935 1 2 0 61.44017656501183 22.385124753080277 -2.2403218942912275 0 0 0
7024 1 1 0 62.55350369973922 21.305549574038317 -1.6445841896732096 0 0 0
13534 1 2 0 62.60072815141275 21.37679537405985 -1.0009589568209958e-07 0 0 0
13535 1 2 0 59.98589286152742 22.523278315750748 -1.174460348725923e-07 0 0 0
9887 1 2 0 64.1338301659014 18.192727146780584 -2.2217677324998357 0 0 0
6990 1 1 0 65.64489330395766 17.79627801355069 -1.648164798488738 0 0 0
13500 1 2 0 65.64454335790153 17.83852399713412 -2.1452930786937059e-07 0 0 0
9888 1 2 0 66.89686461046226 18.758216700130625 -2.20324335705356 0 0 0
6994 1 1 0 68.35204791869201 19.36939194797744 -1.6439766836656124 0 0 0
9936 1 2 0 64.070638852321 21.597756489493854 -2.2305347663526747 0 0 0
7054 1 1 0 65.11305596790214 22.737142771076837 -1.6425797309785017 0 0 0
9978 1 2 0 66.59969647364518 22.531956622769805 -2.296128178401334 0 0 0
7053 1 1 0 68.10763752938945 22.401556376533822 -1.6465911588126598 0 0 0
9893 1 2 0 68.62854689363138 20.91945006047123 -2.1651081758085593 0 0 0
13563 1 2 0 68.0926653713887 22.453619352810094 -6.693379626181346e-07 0 0 0
13564 1 2 0 65.19622559748294 22.683048078422107 -2.436946185999639e-08 0 0 0
6993 1 1 0 71.179863880797 18.138394150529567 -1.6457120930287203 0 0 0
13503 1 2 0 71.18634967462756 18.18243761608842 -3.2783787548573996e-07 0 0 0
9891 1 2 0 69.67871820707252 18.555621866485875 -2.2194188531352874 0 0 0
9892 1 2 0 72.41792134130138 19.0952060706953 -2.2139245184113907 0 0 0
7029 1 1 0 73.63459296392759 20.073930490511014 -1.6471488127773841 0 0 0
9943 1 2 0 73.37850874292651 21.589774564356105 -2.240915359938086 0 0 0
9832 1 2 0 76.95652347979964 17.759287563638672 -2.2400656174202283 0 0 0
9941 1 2 0 75.13003645435433 19.65525181733194 -2.2279129577188894 0 0 0
7028 1 1 0 76.62373833267192 19.24638698641465 -1.6444406657171409 0 0 0
9942 1 2 0 77.85479243743214 20.18684556978135 -2.2203100757525807 0 0 0
9949 1 2 0 79.1043741638732 22.46123119046308 -2.2201326550383476 0 0 0
7033 1 1 0 79.23024903642636 20.90891710097237 -1.6468190640825662 0 0 0
13543 1 2 0 79.254353617087 20.864881941960757 -3.5161600108228207e-07 0 0 0
13538 1 2 0 76.59377450049223 19.295702548068924 -1.7998222647560872e-06 0 0 0
9947 1 2 0 80.63138169252696 20.210851574252242 -2.209267109113885 0 0 0
7032 1 1 0 82.1939262423917 19.99084699597842 -1.6467510535320857 0 0 0
9895 1 2 0 82.82756772971517 18.532624508262433 -2.177131837190006 0 0 0
9948 1 2 0 83.08847088850194 21.286611287163026 -2.190829435435345 0 0 0
7059 1 1 0 84.2178058216914 22.388622439804415 -1.647581864569387 0 0 0
9985 1 2 0 85.66686399922999 21.768349237964493 -2.191032920466481 0 0 0
9856 1 2 0 89.8537625582998 18.19202254204576 -2.2122102509641457 0 0 0
9956 1 2 0 88.16539124996582 20.52949917431367 -2.2064842962463236 0 0 0
7037 1 1 0 89.54035179482216 19.74210455801432 -1.645857549089361 0 0 0
9955 1 2 0 90.83541193069546 20.588399366775214 -2.2396566368165405 0 0 0
7058 1 1 0 87.23467151853094 21.815923391980906 -1.650077394406134 0 0 0
13568 1 2 0 87.26247204593491 21.767004141916654 7.812203060155036e-08 0 0 0
9869 1 2 0 94.49058927675084 17.91061077156261 -1.3801809908052824 0 0 0
7038 1 1 0 92.32913388067072 20.90150064225171 -1.6185051075948507 0 0 0
7036 1 1 0 94.82453299799623 19.501903514325704 -1.5122060028416895 0 0 0
9953 1 2 0 93.5299365013509 20.055202178892177 -2.366245644310974 0 0 0
9957 1 2 0 92.75439964636405 22.454584667872478 -1.9705532512060255 0 0 0
9954 1 2 0 96.35746641586469 19.615239246504764 -2.175911173718615 0 0 0
9961 1 2 0 96.13583692370088 22.096581310825613 -2.1594637635575573 0 0 0
13546 1 2 0 94.85207362349072 20.22097443059829 -2.931765973343852e-07 0 0 0
13548 1 2 0 92.2046432712924 20.593267644112718 -1.0401575784324997e-07 0 0 0
9470 1 2 0 99.40982103827392 17.774809369685716 -2.360237512961584 0 0 0
6721 1 1 0 100.71124398163288 18.30368262237417 -1.4931031314789054 0 0 0
9409 1 2 0 102.09387938546593 18.059284076217292 -2.32026279702574 0 0 0
13485 1 2 0 98.03174424407412 17.73236130964785 2.7551237947117437e-07 0 0 0
9469 1 2 0 100.60329114441528 19.896651109585225 -1.301824776291675 0 0 0
7041 1 1 0 97.19197878854081 20.941302117609613 -1.6284390452196746 0 0 0
9471 1 2 0 98.63156097217097 21.279836616657207 -2.3637135721893374 0 0 0
6722 1 1 0 100.02785297174643 21.406907950780372 -1.4908838407322569 0 0 0
9467 1 2 0 101.2096309382689 22.194679678869537 -2.310171436130568 0 0 0
6743 1 1 0 9.968561518445307 23.487897996048243 -1.6472593670354299 0 0 0
9502 1 2 0 11.477956944017837 23.833342948439846 -2.2032416737750045 0 0 0
9500 1 2 0 8.910827520951337 24.653823948104513 -2.1747760230703217 0 0 0
6801 1 1 0 12.67083838610631 24.837153092599625 -1.646541807823444 0 0 0
9588 1 2 0 12.289664635554244 26.350517235231973 -2.240477036505988 0 0 0
9586 1 2 0 10.150185023389184 28.214465599885298 -2.175160839382802 0 0 0
6802 1 1 0 11.663037296354924 27.764924439083675 -1.6397987931986941 0 0 0
13312 1 2 0 11.63321623359719 27.638511736940348 -1.9963355631454013e-07 0 0 0
7066 1 1 0 15.444237989182575 23.38668050214614 -1.648861136655026 0 0 0
13576 1 2 0 15.438518773767006 23.356528633612548 -4.916600200902801e-07 0 0 0
9589 1 2 0 14.100528936330281 24.206986079043375 -2.2116678584175316 0 0 0
9997 1 2 0 16.764199189880195 24.266578390790567 -2.1795223997481883 0 0 0
7068 1 1 0 18.024117745305873 25.233988370092646 -1.6471184473291482 0 0 0
10000 1 2 0 17.830795171192126 26.835136088352513 -2.20690542239951 0 0 0
7141 1 1 0 17.63234091192372 28.415260676850945 -1.6399999885063241 0 0 0
13578 1 2 0 18.021377259094624 25.301993364943478 -4.78696465344689e-07 0 0 0