ITEM: TIMESTEP
1552
ITEM: NUMBER OF ATOMS
15564
ITEM: BOX BOUNDS pp pp pp
0.0000000000000000e+00 2.0509057600773855e+02
0.0000000000000000e+00 1.7653773450612650e+02
-1.0000000000000000e+02 1.0000000000000000e+02
ITEM: ATOMS id type element x y z v_uncoordination
1 1 Si 106.222 5.31612 1.64959 0
2 1 Si 103.049 6.24418 1.62574 0
3 1 Si 108.473 7.57594 1.63951 0
4 1 Si 107.432 10.5461 1.63586 0
5 1 Si 104.459 11.4748 1.64129 0
6 1 Si 102.256 9.30315 1.64302 0
7 1 Si 107.726 2.45239 1.62721 0
8 1 Si 99.9547 5.13308 1.62627 0
9 1 Si 100.379 2.05272 1.62392 0
10 1 Si 102.741 0.0001407 1.62917 0
11 1 Si 105.854 176.414 1.63021 0
12 1 Si 113.148 4.50414 1.63473 0
13 1 Si 111.661 7.40697 1.62225 0
14 1 Si 110.982 2.03377 1.62042 0
15 1 Si 116.422 3.93372 1.62804 0
16 1 Si 118.466 6.51723 1.6561 0
17 1 Si 117.269 9.73236 1.62193 0
18 1 Si 112.116 10.6113 1.62838 0
19 1 Si 114.798 12.1956 1.63541 0
20 1 Si 117.675 0.826142 1.6286 0
21 1 Si 115.38 175.032 1.63339 0
22 1 Si 112.163 175.574 1.63713 0
23 1 Si 121.72 5.57276 1.64872 0
24 1 Si 123.024 2.49712 1.64158 0
25 1 Si 120.927 176.457 1.63078 0
26 1 Si 123.934 7.95987 1.64624 0
27 1 Si 122.762 10.9093 1.63445 0
28 1 Si 119.667 11.7585 1.6398 0
29 1 Si 128.313 4.8823 1.6306 0
30 1 Si 127.195 7.82551 1.629 0
31 1 Si 126.342 2.30746 1.61784 0
32 1 Si 131.506 4.57916 1.63383 0
33 1 Si 133.924 6.81385 1.64946 0
34 1 Si 129.411 10.2348 1.62349 0
35 1 Si 132.701 9.91109 1.62173 0
36 1 Si 131.792 1.42869 1.62753 0
37 1 Si 128.775 0.164641 1.63656 0
38 1 Si 137.437 2.37421 1.62694 0
39 1 Si 137.124 5.7133 1.62313 0
40 1 Si 134.818 0.352488 1.64529 0
41 1 Si 140.474 1.07597 1.63096 0
42 1 Si 143.076 3.11216 1.63164 0
43 1 Si 143.073 6.30064 1.61043 0
44 1 Si 140.007 7.523 1.63485 0
45 1 Si 140.844 174.27 1.64053 0
46 1 Si 137.919 172.334 1.64199 0
47 1 Si 134.817 173.652 1.64855 0
48 1 Si 146.214 2.40165 1.6245 0
49 1 Si 148.385 4.87981 1.62602 0
50 1 Si 146.204 7.31226 1.5976 0
51 1 Si 146.604 175.763 1.63282 0
52 1 Si 144.204 173.433 1.62262 0
53 1 Si 151.657 4.46081 1.62413 0
54 1 Si 154.485 6.26376 1.61844 0
55 1 Si 154.912 9.64694 1.63825 0
56 1 Si 145.852 10.518 1.61851 0
57 1 Si 151.971 11.1468 1.62389 0
58 1 Si 148.798 11.5737 1.63358 0
59 1 Si 152.137 1.2323 1.61819 0
60 1 Si 149.838 175.433 1.63591 0
61 1 Si 156.716 3.80366 1.62014 0
62 1 Si 155.321 0.824729 1.62737 0
63 1 Si 161.629 6.86538 1.62507 0
64 1 Si 159.984 3.64498 1.62854 0
65 1 Si 161.129 10.3566 1.64819 0
66 1 Si 157.872 11.5671 1.65138 0
67 1 Si 164.842 6.20564 1.6275 0
68 1 Si 165.667 3.05727 1.60644 0
69 1 Si 160.988 0.0678139 1.62964 0
70 1 Si 164.283 176.497 1.62618 0
71 1 Si 173.825 2.36047 1.61446 0
72 1 Si 170.727 1.40316 1.63408 0
73 1 Si 170.362 6.78451 1.61259 0
74 1 Si 168.832 3.87408 1.61161 0
75 1 Si 175.865 4.84868 1.61373 0
76 1 Si 173.741 7.39019 1.63542 0
77 1 Si 175.894 0.0434767 1.61309 0
78 1 Si 171.804 173.023 1.63249 0
79 1 Si 169.306 174.988 1.62731 0
80 1 Si 174.891 173.684 1.61843 0
81 1 Si 167.454 8.29525 1.63595 0
82 1 Si 179.066 3.76215 1.64469 0
83 1 Si 179 0.511343 1.59767 0
84 1 Si 181.92 5.48446 1.62576 0
85 1 Si 181.359 9.07148 1.63446 0
86 1 Si 175.235 10.319 1.62033 0
87 1 Si 178.516 11.2121 1.62232 0
88 1 Si 184.91 3.38855 1.64067 0
89 1 Si 185.542 176.304 1.6294 0
90 1 Si 180.013 173.967 1.63594 0
91 1 Si 183.239 173.591 1.6257 0
92 1 Si 187.819 5.06791 1.61061 0
93 1 Si 189.003 8.11011 1.62603 0
94 1 Si 184.074 10.91 1.6202 0
95 1 Si 187.214 10.6299 1.63797 0
96 1 Si 190.762 3.68923 1.63367 0
97 1 Si 191.667 0.527672 1.63951 0
98 1 Si 188.837 175.262 1.63071 0
99 1 Si 193.124 5.8712 1.63346 0
100 1 Si 192.141 8.92227 1.61543 0
101 1 Si 197.341 1.93764 1.64117 0
102 1 Si 196.219 5.02354 1.64722 0
103 1 Si 194.999 176.042 1.65564 0
104 1 Si 200.69 1.48457 1.62866 0
105 1 Si 202.752 4.13697 1.62773 0
106 1 Si 201.343 6.987 1.64025 0
107 1 Si 198.22 7.5424 1.63793 0
108 1 Si 201.863 174.867 1.62578 0
109 1 Si 199.695 172.188 1.63053 0
110 1 Si 196.359 172.822 1.61616 0
111 1 Si 0.744006 5.39755 1.62612 0
112 1 Si 203.366 9.41839 1.617 0
113 1 Si 1.33387 8.62564 1.60799 0
114 1 Si 3.36527 3.62022 1.63017 0
115 1 Si 2.41762 0.476341 1.59553 0
116 1 Si 0.119272 174.579 1.65657 0
117 1 Si 6.52027 4.73882 1.62033 0
118 1 Si 7.91989 1.8246 1.63461 0
119 1 Si 5.51903 176.176 1.59692 0
120 1 Si 109.682 12.7072 1.61319 0
121 1 Si 124.941 13.201 1.63367 0
122 1 Si 128.109 13.1638 1.64223 0
123 1 Si 140.144 10.7472 1.6311 0
124 1 Si 134.382 12.7714 1.63174 0
125 1 Si 137.634 12.7976 1.62268 0
126 1 Si 143.046 12.2434 1.62277 0
127 1 Si 151.425 14.2441 1.60252 0
128 1 Si 148.318 14.6651 1.57836 0
129 1 Si 167.164 11.5595 1.62983 0
130 1 Si 163.948 12.5905 1.62431 0
131 1 Si 173.111 12.8114 1.60635 0
132 1 Si 169.895 13.5205 1.63295 0
133 1 Si 197.251 10.6158 1.6324 0
134 1 Si 194.168 11.4823 1.65069 0
135 1 Si 202.41 12.3781 1.62774 0
136 1 Si 199.356 12.975 1.62792 0
137 1 Si 108.72 15.7376 1.62556 0
138 1 Si 105.675 16.6434 1.63532 0
139 1 Si 103.482 14.4502 1.61983 0
140 1 Si 118.589 14.7291 1.63091 0
141 1 Si 113.632 15.5204 1.62866 0
142 1 Si 116.34 17.0411 1.63548 0
143 1 Si 123.842 16.0875 1.62226 0
144 1 Si 120.859 16.7432 1.62559 0
145 1 Si 129.677 16.0004 1.64101 0
146 1 Si 132.865 15.7565 1.63086 0
147 1 Si 157.915 14.956 1.61665 0
148 1 Si 152.302 17.2809 1.62662 0
149 1 Si 155.523 17.2735 1.61861 0
150 1 Si 163.983 16.0145 1.64733 0
151 1 Si 160.711 16.7661 1.62557 0
152 1 Si 178.354 14.6542 1.63911 0
153 1 Si 175.098 15.3701 1.60659 0
154 1 Si 185.111 13.9328 1.61703 0
155 1 Si 180.756 17.1866 1.6226 0
156 1 Si 184.09 16.9123 1.61732 0
157 1 Si 188.267 13.5874 1.60469 0
158 1 Si 193.707 14.7308 1.6259 0
159 1 Si 190.646 15.7175 1.63314 0
160 1 Si 3.45339 11.1124 1.63561 0
161 1 Si 204.265 14.9502 1.61485 0
162 1 Si 2.33385 14.2559 1.63227 0
163 1 Si 8.22483 7.64613 1.6296 0
164 1 Si 6.69439 10.5351 1.62601 0
165 1 Si 111.1 17.8492 1.61551 0
166 1 Si 128.404 18.9993 1.62385 0
167 1 Si 125.331 18.785 1.61269 0
168 1 Si 139.053 15.6609 1.62551 0
169 1 Si 134.24 18.721 1.63662 0
170 1 Si 137.424 18.3761 1.64584 0
171 1 Si 142.24 15.3677 1.64702 0
172 1 Si 147.187 17.5792 1.64931 0
173 1 Si 144.026 18.0667 1.6438 0
174 1 Si 149.767 19.5029 1.62371 0
175 1 Si 169.842 16.8111 1.61437 0
176 1 Si 166.879 18.282 1.64999 0
177 1 Si 173.01 17.8924 1.63551 0
178 1 Si 199.027 16.1309 1.61069 0
179 1 Si 196.003 17.1221 1.63852 0
180 1 Si 116.79 20.2461 1.64209 0
181 1 Si 119.803 19.6365 1.5983 0
182 1 Si 129.747 21.9465 1.62839 0
183 1 Si 132.942 21.7662 1.63105 0
184 1 Si 159.775 19.8573 1.624 0
185 1 Si 156.551 20.3349 1.61094 0
186 1 Si 167.541 21.7866 1.63839 0
187 1 Si 161.763 22.364 1.61915 0
188 1 Si 164.811 23.3969 1.6253 0
189 1 Si 174.408 20.8808 1.6286 0
190 1 Si 177.501 22.0037 1.62555 0
191 1 Si 180.332 20.5158 1.63172 0
192 1 Si 186.607 19.1815 1.6248 0
193 1 Si 189.926 18.9024 1.63532 0
194 1 Si 202.037 17.2893 1.63339 0
195 1 Si 110.034 21.0808 1.63986 0
196 1 Si 106.706 21.8355 1.63652 0
197 1 Si 104.362 19.5421 1.62343 0
198 1 Si 115.444 23.1933 1.62688 0
199 1 Si 112.221 23.6269 1.61959 0
200 1 Si 122.756 20.4341 1.63073 0
201 1 Si 142.428 20.8741 1.60943 0
202 1 Si 139.224 20.9394 1.6161 0
203 1 Si 149.009 22.8197 1.63278 0
204 1 Si 143.141 24.0103 1.62622 0
205 1 Si 146.214 25.0022 1.62953 0
206 1 Si 154.944 23.1878 1.64362 0
207 1 Si 151.862 24.3469 1.64606 0
208 1 Si 173.08 23.8353 1.62102 0
209 1 Si 169.94 24.4124 1.62516 0
210 1 Si 178.092 25.2921 1.62447 0
211 1 Si 175.18 26.3862 1.62632 0
212 1 Si 182.703 22.8525 1.61668 0
213 1 Si 185.878 22.2928 1.63585 0
214 1 Si 195.473 20.3225 1.61443 0
215 1 Si 192.386 21.2283 1.61569 0
216 1 Si 202.767 20.3745 1.62313 0
217 1 Si 200.684 22.8528 1.62289 0
218 1 Si 197.49 22.9244 1.62812 0
219 1 Si 0.760161 21.2828 1.6162 0
220 1 Si 3.64809 19.8237 1.64705 0
221 1 Si 4.45372 16.6993 1.63662 0
222 1 Si 122.494 23.385 1.6365 0
223 1 Si 120.248 25.4105 1.63213 0
224 1 Si 117.217 25.9506 1.61605 0
225 1 Si 125.122 24.9042 1.60075 0
226 1 Si 128.186 24.7676 1.65116 0
227 1 Si 134.743 24.5149 1.6346 0
228 1 Si 137.874 23.8019 1.62105 0
229 1 Si 160.194 25.1168 1.62724 0
230 1 Si 157.101 25.5506 1.64373 0
231 1 Si 165.044 26.62 1.61969 0
232 1 Si 162.085 27.6326 1.64023 0
233 1 Si 183.026 26.1103 1.62789 0
234 1 Si 180.383 27.8001 1.63151 0
235 1 Si 187.817 24.9138 1.59764 0
236 1 Si 193.229 24.4873 1.62792 0
237 1 Si 190.721 26.4168 1.6312 0
238 1 Si 202.444 25.5419 1.63871 0
239 1 Si 0.358325 24.467 1.63204 0
240 1 Si 105.696 24.9776 1.61808 0
241 1 Si 102.479 25.9914 1.64582 0
242 1 Si 101.132 18.9433 1.63109 0
243 1 Si 98.6098 20.9327 1.61644 0
244 1 Si 99.8781 23.9872 1.61619 0
245 1 Si 108.144 27.215 1.63314 0
246 1 Si 111.4 26.8668 1.6251 0
247 1 Si 122.88 27.0187 1.61565 0
248 1 Si 128.565 27.9422 1.62037 0
249 1 Si 134.146 27.773 1.62813 0
250 1 Si 131.401 29.3923 1.6258 0
251 1 Si 140.372 25.7918 1.62893 0
252 1 Si 151.142 27.4835 1.6347 0
253 1 Si 145.63 28.4039 1.64205 0
254 1 Si 148.597 29.3562 1.63039 0
255 1 Si 156.335 28.6001 1.63296 0
256 1 Si 153.428 29.6349 1.61902 0
257 1 Si 170.054 27.8446 1.62416 0
258 1 Si 167.103 29.0504 1.63323 0
259 1 Si 185.955 27.49 1.60548 0
260 1 Si 196.274 25.9675 1.60902 0
261 1 Si 201.634 28.7264 1.65034 0
262 1 Si 198.18 28.9617 1.65021 0
263 1 Si 2.8629 26.4055 1.63303 0
264 1 Si 5.68274 24.8789 1.63193 0
265 1 Si 6.18412 21.7462 1.64191 0
266 1 Si 107.299 30.2923 1.63112 0
267 1 Si 104.319 31.1881 1.6221 0
268 1 Si 101.903 29.2396 1.63149 0
269 1 Si 116.789 29.2027 1.61797 0
270 1 Si 113.433 29.6538 1.64835 0
271 1 Si 122.943 30.078 1.6234 0
272 1 Si 119.722 31.0789 1.62443 0
273 1 Si 126.219 30.2049 1.62905 0
274 1 Si 139.35 28.8617 1.62939 0
275 1 Si 136.388 30.1064 1.61228 0
276 1 Si 140.566 31.8195 1.62069 0
277 1 Si 143.668 31.176 1.63023 0
278 1 Si 161.259 30.6723 1.63711 0
279 1 Si 158.192 31.1507 1.61669 0
280 1 Si 175.332 29.6752 1.63447 0
281 1 Si 172.214 30.367 1.6421 0
282 1 Si 180.758 31.1813 1.62292 0
283 1 Si 177.64 32.0735 1.63379 0
284 1 Si 187.737 30.192 1.62871 0
285 1 Si 190.996 29.7088 1.61612 0
286 1 Si 204.395 30.95 1.63178 0
287 1 Si 2.467 29.6387 1.63712 0
288 1 Si 108.926 33.0176 1.61913 0
289 1 Si 112.151 32.8019 1.6448 0
290 1 Si 127.779 32.9543 1.62617 0
291 1 Si 130.96 32.5908 1.60957 0
292 1 Si 135.9 33.384 1.62768 0
293 1 Si 138.816 34.6426 1.63637 0
294 1 Si 149.003 32.4734 1.62108 0
295 1 Si 153.952 32.781 1.62732 0
296 1 Si 151.43 34.5435 1.62222 0
297 1 Si 166.261 32.2134 1.63052 0
298 1 Si 163.195 33.2167 1.64491 0
299 1 Si 171.623 33.561 1.63785 0
300 1 Si 168.525 34.4697 1.63812 0
301 1 Si 186.387 33.1309 1.62761 0
302 1 Si 183.106 33.6737 1.63725 0
303 1 Si 196.831 32.1697 1.63095 0
304 1 Si 193.367 32.1686 1.63195 0
305 1 Si 204.589 34.428 1.62844 0
306 1 Si 198.628 35.347 1.63218 0
307 1 Si 201.889 36.5312 1.63562 0
308 1 Si 5.48231 31.1329 1.63198 0
309 1 Si 8.47832 26.3007 1.63194 0
310 1 Si 8.42737 29.5081 1.65096 0
311 1 Si 106.621 35.3138 1.6381 0
312 1 Si 103.64 34.2756 1.60922 0
313 1 Si 119.795 34.3255 1.62737 0
314 1 Si 113.469 35.8755 1.62782 0
315 1 Si 117.012 36.2709 1.62068 0
316 1 Si 122.859 35.7334 1.60599 0
317 1 Si 126.194 35.6867 1.63946 0
318 1 Si 133.056 35.0609 1.63149 0
319 1 Si 143.826 34.4368 1.6364 0
320 1 Si 146.896 34.692 1.63568 0
321 1 Si 13.5773 3.28385 1.6286 0
322 1 Si 16.5939 4.22235 1.65289 0
323 1 Si 13.7816 6.3842 1.61359 0
324 1 Si 16.7996 7.31439 1.56256 0
325 1 Si 11.1108 1.2366 1.63051 0
326 1 Si 19.2987 2.74716 1.60823 0
327 1 Si 17.6712 176.373 1.59535 0
328 1 Si 15.2606 174.108 1.65441 0
329 1 Si 12.0895 174.697 1.62846 0
330 1 Si 11.456 8.41369 1.6075 0
331 1 Si 156.864 34.0334 1.61054 0
332 1 Si 22.4561 3.87494 1.62057 0
333 1 Si 23.5713 0.791227 1.6248 0
334 1 Si 20.7828 175.682 1.60839 0
335 1 Si 24.4296 6.72405 1.63843 0
336 1 Si 22.6129 9.84505 1.61527 0
337 1 Si 16.7936 10.4161 1.63427 0
338 1 Si 19.5784 12.0132 1.62583 0
339 1 Si 161.782 36.1428 1.60596 0
340 1 Si 158.603 36.7184 1.62183 0
341 1 Si 30.6206 3.73184 1.6298 0
342 1 Si 28.1894 6.47569 1.62868 0
343 1 Si 29.8476 0.18388 1.62847 0
344 1 Si 26.545 175.618 1.62711 0
345 1 Si 173.96 35.8206 1.63972 0
346 1 Si 177.113 35.2954 1.63658 0
347 1 Si 34.0623 4.67168 1.63116 0
348 1 Si 35.2095 7.94581 1.61975 0
349 1 Si 29.7695 9.52244 1.63557 0
350 1 Si 32.9935 10.2575 1.62461 0
351 1 Si 36.6717 2.49369 1.6229 0
352 1 Si 35.859 175.303 1.64415 0
353 1 Si 32.4108 174.146 1.62928 0
354 1 Si 39.597 4.81913 1.62609 0
355 1 Si 37.8968 10.0977 1.62492 0
356 1 Si 40.6192 8.35111 1.62815 0
357 1 Si 191.951 35.1739 1.63308 0
358 1 Si 188.662 35.516 1.62577 0
359 1 Si 42.5105 3.45241 1.632 0
360 1 Si 43.0719 0.20284 1.61763 0
361 1 Si 47.6668 3.61484 1.62075 0
362 1 Si 45.1392 5.51585 1.62828 0
363 1 Si 46.279 0.698786 1.62847 0
364 1 Si 38.4126 172.757 1.63979 0
365 1 Si 41.7754 173.619 1.62739 0
366 1 Si 50.8332 4.51768 1.64128 0
367 1 Si 51.8951 7.61665 1.62371 0
368 1 Si 46.1677 8.63621 1.62968 0
369 1 Si 49.3541 9.77423 1.62673 0
370 1 Si 52.9052 2.067 1.62087 0
371 1 Si 51.4299 175.803 1.633 0
372 1 Si 48.3812 174.901 1.63146 0
373 1 Si 56.0473 1.26492 1.62532 0
374 1 Si 58.7551 2.89545 1.6317 0
375 1 Si 57.8859 6.28446 1.62146 0
376 1 Si 55.1629 8.47545 1.65135 0
377 1 Si 56.7246 174.67 1.61981 0
378 1 Si 53.7333 173.69 1.62654 0
379 1 Si 2.58295 36.0275 1.61864 0
380 1 Si 5.53023 34.4093 1.64369 0
381 1 Si 63.3566 5.46049 1.61872 0
382 1 Si 63.9824 2.26677 1.62036 0
383 1 Si 61.3968 0.444403 1.63271 0
384 1 Si 60.8812 7.54603 1.63236 0
385 1 Si 68.463 4.43532 1.62084 0
386 1 Si 66.2838 6.69169 1.63844 0
387 1 Si 67.1063 1.55664 1.61577 0
388 1 Si 59.1944 172.641 1.62336 0
389 1 Si 62.3117 173.55 1.61956 0
390 1 Si 71.4885 5.32713 1.63551 0
391 1 Si 72.6479 8.28102 1.63446 0
392 1 Si 67.2164 9.75372 1.63186 0
393 1 Si 70.408 10.675 1.62517 0
394 1 Si 73.7094 3.07962 1.62467 0
395 1 Si 72.3225 0.239006 1.60451 0
396 1 Si 69.2958 175.844 1.61083 0
397 1 Si 110.727 38.1462 1.61838 0
398 1 Si 107.223 38.4164 1.61785 0
399 1 Si 76.5744 4.5288 1.62293 0
400 1 Si 75.8932 7.75024 1.62307 0
401 1 Si 79.2367 2.65234 1.63283 0
402 1 Si 78.3271 175.804 1.60545 0
403 1 Si 73.0567 173.724 1.61656 0
404 1 Si 76.1656 173.099 1.62759 0
405 1 Si 118.826 39.0623 1.63172 0
406 1 Si 122.101 38.7929 1.58846 0
407 1 Si 82.3291 4.25553 1.62824 0
408 1 Si 83.3608 7.45609 1.6397 0
409 1 Si 81.2568 9.91722 1.61563 0
410 1 Si 77.9866 10.2179 1.63977 0
411 1 Si 84.8727 2.24535 1.62185 0
412 1 Si 80.9763 173.992 1.62283 0
413 1 Si 83.7761 175.673 1.62807 0
414 1 Si 90.4782 5.33171 1.63203 0
415 1 Si 89.503 8.4932 1.64476 0
416 1 Si 88.192 2.82596 1.64793 0
417 1 Si 86.3193 8.94789 1.62159 0
418 1 Si 128.425 38.1327 1.59753 0
419 1 Si 131.883 38.2331 1.6583 0
420 1 Si 93.7817 4.5732 1.61494 0
421 1 Si 96.7307 6.1964 1.633 0
422 1 Si 96.57 9.36725 1.60892 0
423 1 Si 95.6208 12.3601 1.6329 0
424 1 Si 90.911 11.5475 1.58651 0
425 1 Si 93.0597 14.1094 1.62054 0
426 1 Si 94.6052 1.45247 1.60453 0
427 1 Si 97.5793 0.720696 1.61325 0
428 1 Si 91.4181 174.159 1.63128 0
429 1 Si 94.4341 174.741 1.63773 0
430 1 Si 89.1528 176.354 1.60488 0
431 1 Si 139.363 37.9417 1.63354 0
432 1 Si 142.539 37.3668 1.63375 0
433 1 Si 99.4355 10.6126 1.59945 0
434 1 Si 101.325 173.773 1.6093 0
435 1 Si 98.3087 174.29 1.62636 0
436 1 Si 147.949 37.5813 1.62079 0
437 1 Si 151.062 37.7027 1.6241 0
438 1 Si 13.5604 10.9514 1.61437 0
439 1 Si 8.72081 13.095 1.62397 0
440 1 Si 11.9535 13.6698 1.62183 0
441 1 Si 167.895 37.5713 1.61615 0
442 1 Si 162.67 39.2133 1.62563 0
443 1 Si 165.682 39.8323 1.6368 0
444 1 Si 24.8594 12.126 1.63098 0
445 1 Si 28.068 12.293 1.64385 0
446 1 Si 173.323 38.9237 1.64239 0
447 1 Si 170.303 39.5464 1.62781 0
448 1 Si 179.178 37.899 1.64719 0
449 1 Si 182.283 36.9456 1.62864 0
450 1 Si 34.5231 13.1916 1.61284 0
451 1 Si 37.7769 13.5789 1.62009 0
452 1 Si 43.4706 10.4964 1.61984 0
453 1 Si 193.695 37.9654 1.62433 0
454 1 Si 196.897 38.2229 1.62058 0
455 1 Si 61.4749 10.7472 1.63161 0
456 1 Si 55.6633 11.8216 1.63447 0
457 1 Si 58.8421 12.6929 1.62987 0
458 1 Si 111.33 41.2591 1.63289 0
459 1 Si 108.87 43.4715 1.64381 0
460 1 Si 105.573 43.7231 1.61486 0
461 1 Si 104.495 40.6079 1.6174 0
462 1 Si 64.6172 11.6804 1.63641 0
463 1 Si 114.384 42.2589 1.61961 0
464 1 Si 117.533 42.0093 1.62579 0
465 1 Si 125.339 39.3646 1.62613 0
466 1 Si 83.2054 12.474 1.6246 0
467 1 Si 86.3094 12.1654 1.61736 0
468 1 Si 134.034 41.0304 1.62371 0
469 1 Si 137.659 40.9724 1.64167 0
470 1 Si 98.4717 13.5875 1.59838 0
471 1 Si 145.204 39.1163 1.62877 0
472 1 Si 157.946 39.9154 1.62329 0
473 1 Si 152.156 40.6706 1.62541 0
474 1 Si 155.277 41.7605 1.62357 0
475 1 Si 23.6416 14.9781 1.60872 0
476 1 Si 18.3128 15.4608 1.63133 0
477 1 Si 21.0977 16.7463 1.63074 0
478 1 Si 160.641 41.676 1.61238 0
479 1 Si 29.402 15.2964 1.61932 0
480 1 Si 32.5867 15.7107 1.6308 0
481 1 Si 178.294 41.1168 1.61894 0
482 1 Si 175.183 41.4884 1.62818 0
483 1 Si 50.1511 13.0256 1.63484 0
484 1 Si 53.2896 14.2611 1.63076 0
485 1 Si 187.513 38.5154 1.61879 0
486 1 Si 184.397 39.4405 1.64108 0
487 1 Si 192.543 41.0321 1.6226 0
488 1 Si 189.348 41.1292 1.61431 0
489 1 Si 76.8397 13.2703 1.62383 0
490 1 Si 71.2496 13.8975 1.63471 0
491 1 Si 74.2411 15.2434 1.62529 0
492 1 Si 197.459 41.5227 1.62147 0
493 1 Si 202.56 39.9856 1.6187 0
494 1 Si 200.477 42.7042 1.62745 0
495 1 Si 82.3692 15.4652 1.63276 0
496 1 Si 79.2186 15.3357 1.60259 0
497 1 Si 113.719 45.2479 1.60431 0
498 1 Si 110.716 45.9966 1.60633 0
499 1 Si 88.874 14.0418 1.62156 0
500 1 Si 126.06 42.3155 1.64974 0
501 1 Si 118.307 45.1773 1.62982 0
502 1 Si 123.496 44.0718 1.55923 0
503 1 Si 121.249 46.2099 1.63296 0
504 1 Si 89.6479 17.2788 1.63044 0
505 1 Si 92.9869 17.4915 1.61998 0
506 1 Si 128.916 43.7094 1.6017 0
507 1 Si 132.227 43.963 1.62983 0
508 1 Si 100.629 15.8024 1.61644 0
509 1 Si 145.882 42.1515 1.63167 0
510 1 Si 139.791 43.7941 1.63104 0
511 1 Si 143.083 43.8892 1.61055 0
512 1 Si 7.60428 16.0341 1.6273 0
513 1 Si 149.255 42.3496 1.616 0
514 1 Si 13.0853 16.742 1.61633 0
515 1 Si 10.1431 18.0339 1.62357 0
516 1 Si 166.447 42.8705 1.61153 0
517 1 Si 169.493 42.5028 1.63252 0
518 1 Si 24.9508 17.7967 1.61717 0
519 1 Si 27.9839 18.2343 1.61519 0
520 1 Si 178.783 44.4239 1.62815 0
521 1 Si 183.998 42.7211 1.60889 0
522 1 Si 181.82 45.2882 1.62621 0
523 1 Si 44.3945 13.7918 1.62591 0
524 1 Si 39.5488 16.8244 1.63969 0
525 1 Si 42.7748 16.6812 1.63311 0
526 1 Si 47.4953 14.9206 1.62879 0
527 1 Si 65.715 14.6051 1.6049 0
528 1 Si 59.3654 15.7937 1.60815 0
529 1 Si 61.5283 18.0007 1.63472 0
530 1 Si 64.4842 17.4281 1.61947 0
531 1 Si 194.77 43.4424 1.62207 0
532 1 Si 68.6628 15.7174 1.59292 0
533 1 Si 3.08418 39.3451 1.64253 0
534 1 Si 0.500062 41.2863 1.64193 0
535 1 Si 5.91915 41.0662 1.63638 0
536 1 Si 8.47103 35.9728 1.61222 0
537 1 Si 8.42102 39.1543 1.62266 0
538 1 Si 115.971 47.3475 1.59725 0
539 1 Si 84.0291 18.2473 1.60654 0
540 1 Si 78.6037 18.399 1.60037 0
541 1 Si 81.3304 20.025 1.63419 0
542 1 Si 87.1303 19.622 1.63054 0
543 1 Si 95.2283 20.2642 1.64035 0
544 1 Si 126.311 45.5298 1.61865 0
545 1 Si 133.577 47.0929 1.61554 0
546 1 Si 139.527 47.1884 1.63178 0
547 1 Si 136.597 48.5775 1.62023 0
548 1 Si 149.913 45.3646 1.61693 0
549 1 Si 144.26 46.8469 1.61579 0
550 1 Si 147.377 47.2557 1.63192 0
551 1 Si 16.0412 18.2854 1.63711 0
552 1 Si 155.601 45.0257 1.62434 0
553 1 Si 152.84 46.5804 1.61854 0
554 1 Si 22.395 19.566 1.6223 0
555 1 Si 160.774 44.8805 1.6313 0
556 1 Si 158.24 46.8107 1.61938 0
557 1 Si 33.7562 18.6339 1.61022 0
558 1 Si 29.0657 21.2854 1.62358 0
559 1 Si 32.1689 21.3307 1.61116 0
560 1 Si 163.071 47.0756 1.63331 0
561 1 Si 165.941 45.9158 1.63183 0
562 1 Si 39.2659 20.4954 1.64463 0
563 1 Si 36.1675 20.6129 1.63308 0
564 1 Si 174.289 44.5453 1.6344 0
565 1 Si 171.241 45.0243 1.61847 0
566 1 Si 54.1658 17.6052 1.64105 0
567 1 Si 47.5233 18.1558 1.62143 0
568 1 Si 52.7844 20.663 1.62105 0
569 1 Si 49.5953 20.5927 1.61318 0
570 1 Si 57.294 18.1513 1.60204 0
571 1 Si 176.489 46.8167 1.62664 0
572 1 Si 187.143 43.4508 1.61287 0
573 1 Si 75.4396 18.3373 1.62662 0
574 1 Si 67.3261 18.4951 1.62401 0
575 1 Si 74.4182 21.3505 1.6326 0
576 1 Si 71.3123 21.8042 1.5814 0
577 1 Si 68.2101 21.3678 1.64497 0
578 1 Si 1.26087 44.4604 1.63243 0
579 1 Si 201.072 46.1311 1.62511 0
580 1 Si 204.228 46.8107 1.62451 0
581 1 Si 111.141 49.1084 1.62825 0
582 1 Si 108.36 50.6238 1.60609 0
583 1 Si 105.175 49.5852 1.62965 0
584 1 Si 103.579 46.5573 1.6351 0
585 1 Si 114.267 49.9909 1.62454 0
586 1 Si 125.933 48.5768 1.61841 0
587 1 Si 122.75 48.9987 1.6181 0
588 1 Si 128.547 50.4028 1.6211 0
589 1 Si 131.71 49.7937 1.62293 0
590 1 Si 9.29834 21.0715 1.62585 0
591 1 Si 142.215 49.2497 1.60973 0
592 1 Si 148.9 49.9941 1.62041 0
593 1 Si 152.1 49.6184 1.64289 0
594 1 Si 159.112 49.9137 1.62095 0
595 1 Si 162.284 50.1795 1.6204 0
596 1 Si 44.5946 19.4776 1.60387 0
597 1 Si 40.1097 24.2773 1.62467 0
598 1 Si 45.1541 22.8314 1.63177 0
599 1 Si 43.2359 25.5778 1.62729 0
600 1 Si 168.87 47.0498 1.62549 0
601 1 Si 187.957 46.4688 1.63175 0
602 1 Si 185.482 48.5034 1.61337 0
603 1 Si 182.298 48.5889 1.6319 0
604 1 Si 59.5296 20.3491 1.6272 0
605 1 Si 191.024 47.5658 1.62521 0
606 1 Si 194.194 46.7576 1.64776 0
607 1 Si 4.08617 46.1057 1.62786 0
608 1 Si 6.73239 44.3136 1.63398 0
609 1 Si 81.4437 23.1739 1.61714 0
610 1 Si 75.9007 24.2335 1.62074 0
611 1 Si 78.9265 25.1586 1.61896 0
612 1 Si 121.689 51.9419 1.63213 0
613 1 Si 115.518 52.8984 1.6241 0
614 1 Si 118.776 53.3686 1.62552 0
615 1 Si 87.1254 23.2342 1.61437 0
616 1 Si 84.1878 24.7668 1.60551 0
617 1 Si 94.309 23.3984 1.61361 0
618 1 Si 88.9441 26.1883 1.62309 0
619 1 Si 92.1265 25.846 1.64166 0
620 1 Si 127.473 53.4233 1.62979 0
621 1 Si 124.348 53.7227 1.6276 0
622 1 Si 133.474 52.5287 1.63658 0
623 1 Si 136.64 51.8989 1.62832 0
624 1 Si 96.9638 25.1339 1.61329 0
625 1 Si 143.847 52.2035 1.63414 0
626 1 Si 147.186 52.6945 1.6359 0
627 1 Si 16.1654 22.096 1.62936 0
628 1 Si 10.6866 23.9396 1.62876 0
629 1 Si 13.7986 24.59 1.62544 0
630 1 Si 21.8978 22.6594 1.63849 0
631 1 Si 18.9445 24.0679 1.61547 0
632 1 Si 154.229 51.9642 1.62208 0
633 1 Si 157.421 52.5819 1.63618 0
634 1 Si 27.903 24.2354 1.63866 0
635 1 Si 24.6636 24.3096 1.63294 0
636 1 Si 34.5747 23.318 1.62698 0
637 1 Si 169.539 50.0274 1.63427 0
638 1 Si 167.245 52.1368 1.59748 0
639 1 Si 164.199 52.7649 1.62892 0
640 1 Si 172.53 50.9253 1.61415 0
641 1 Si 175.517 49.9759 1.6347 0
642 1 Si 53.6234 23.9723 1.61948 0
643 1 Si 48.3766 23.5859 1.59925 0
644 1 Si 50.8063 25.8899 1.63151 0
645 1 Si 187.253 51.0478 1.6222 0
646 1 Si 190.347 50.6235 1.62859 0
647 1 Si 59.6252 23.4813 1.61921 0
648 1 Si 56.7777 25.2851 1.6266 0
649 1 Si 196.304 49.4492 1.62686 0
650 1 Si 199.582 49.214 1.64044 0
651 1 Si 71.0317 24.9211 1.62044 0
652 1 Si 73.7066 26.5631 1.61754 0
653 1 Si 0.665022 49.6715 1.62555 0
654 1 Si 3.88212 49.3605 1.63636 0
655 1 Si 109.365 53.7146 1.60029 0
656 1 Si 106.247 54.6123 1.61961 0
657 1 Si 103.735 52.5256 1.61808 0
658 1 Si 132.278 55.5718 1.64122 0
659 1 Si 129.101 56.1921 1.63611 0
660 1 Si 138.723 54.4684 1.62698 0
661 1 Si 142.035 54.8705 1.6347 0
662 1 Si 149.432 55.135 1.62696 0
663 1 Si 152.637 54.6321 1.62199 0
664 1 Si 35.0834 26.4572 1.61659 0
665 1 Si 29.6486 27.0363 1.63547 0
666 1 Si 32.5826 28.5408 1.62097 0
667 1 Si 171.893 53.9815 1.62373 0
668 1 Si 168.906 54.7565 1.60899 0
669 1 Si 181.131 51.6951 1.60849 0
670 1 Si 175.989 53.267 1.62753 0
671 1 Si 178.964 54.1245 1.63543 0
672 1 Si 38.2526 27.2665 1.61038 0
673 1 Si 186.159 53.9094 1.63689 0
674 1 Si 183.098 54.18 1.61873 0
675 1 Si 192.207 53.1361 1.63996 0
676 1 Si 195.32 52.6704 1.62983 0
677 1 Si 62.7683 24.4134 1.62415 0
678 1 Si 57.4279 28.6172 1.60831 0
679 1 Si 63.1311 27.5615 1.62072 0
680 1 Si 60.5556 29.4224 1.60948 0
681 1 Si 201.124 52.2668 1.63582 0
682 1 Si 204.37 52.5594 1.63197 0
683 1 Si 65.7905 23.3919 1.60654 0
684 1 Si 68.0076 25.6377 1.6138 0
685 1 Si 112.607 54.5075 1.62411 0
686 1 Si 82.8488 27.7884 1.63479 0
687 1 Si 79.602 28.3103 1.60762 0
688 1 Si 120.014 56.2577 1.61619 0
689 1 Si 123.101 56.5385 1.63119 0
690 1 Si 84.8139 30.2777 1.61429 0
691 1 Si 87.9956 29.5525 1.61908 0
692 1 Si 96.3059 28.1046 1.61235 0
693 1 Si 93.3117 28.814 1.60732 0
694 1 Si 134.217 58.1767 1.65593 0
695 1 Si 137.441 57.4283 1.61387 0
696 1 Si 143.449 57.8598 1.6002 0
697 1 Si 149.248 58.4165 1.62824 0
698 1 Si 146.308 59.6923 1.62456 0
699 1 Si 96.9771 31.0861 1.62588 0
700 1 Si 99.9275 31.8578 1.62368 0
701 1 Si 158.724 55.6263 1.61027 0
702 1 Si 164.403 56.0789 1.63452 0
703 1 Si 161.558 57.7002 1.63321 0
704 1 Si 19.1849 27.467 1.63334 0
705 1 Si 13.8719 27.936 1.61759 0
706 1 Si 16.6977 29.5217 1.61894 0
707 1 Si 24.4631 27.3686 1.63011 0
708 1 Si 21.9842 29.1945 1.63052 0
709 1 Si 174.133 56.1063 1.62331 0
710 1 Si 27.177 28.9125 1.64259 0
711 1 Si 191.029 56.0712 1.61801 0
712 1 Si 187.966 56.4333 1.62517 0
713 1 Si 196.661 55.712 1.63997 0
714 1 Si 199.838 55.3207 1.6458 0
715 1 Si 50.5183 29.3497 1.62143 0
716 1 Si 44.3037 29.1833 1.63108 0
717 1 Si 47.4844 30.7343 1.62266 0
718 1 Si 1.08826 55.3596 1.63397 0
719 1 Si 4.41037 54.9803 1.62235 0
720 1 Si 5.99521 51.9523 1.61937 0
721 1 Si 52.7791 32.0088 1.62142 0
722 1 Si 56.1105 31.731 1.6238 0
723 1 Si 113.468 57.482 1.62174 0
724 1 Si 112.238 60.2477 1.6077 0
725 1 Si 109.647 61.6798 1.64052 0
726 1 Si 107.236 59.7948 1.60774 0
727 1 Si 105.22 57.5379 1.63739 0
728 1 Si 116 59.298 1.62497 0
729 1 Si 119.08 59.2021 1.62095 0
730 1 Si 66.2731 28.2342 1.61861 0
731 1 Si 124.408 59.3666 1.62444 0
732 1 Si 127.623 59.1641 1.6379 0
733 1 Si 73.9756 29.7505 1.64494 0
734 1 Si 67.5959 31.07 1.62206 0
735 1 Si 71.0311 31.3977 1.63692 0
736 1 Si 77.2228 30.6794 1.63979 0
737 1 Si 155.502 56.1576 1.62669 0
738 1 Si 167.448 57.5122 1.62051 0
739 1 Si 11.6055 30.2667 1.62835 0
740 1 Si 173.093 59.356 1.65063 0
741 1 Si 169.647 60.06 1.63962 0
742 1 Si 179.325 57.3567 1.61091 0
743 1 Si 182.402 57.2049 1.63566 0
744 1 Si 33.0851 31.8852 1.62129 0
745 1 Si 27.2057 32.0108 1.6293 0
746 1 Si 30.1619 33.5834 1.63718 0
747 1 Si 38.7899 30.7269 1.64961 0
748 1 Si 36.29 33.1821 1.64093 0
749 1 Si 195.448 58.8626 1.63837 0
750 1 Si 192.274 58.9946 1.61718 0
751 1 Si 42.0105 31.7616 1.64398 0
752 1 Si 201.398 58.1796 1.6386 0
753 1 Si 204.607 58.3089 1.62073 0
754 1 Si 114.69 62.1077 1.6073 0
755 1 Si 121.675 61.0502 1.63415 0
756 1 Si 84.0159 33.4066 1.6166 0
757 1 Si 78.162 33.8275 1.61698 0
758 1 Si 81.2108 34.9111 1.62937 0
759 1 Si 89.1242 32.7387 1.63933 0
760 1 Si 86.8192 34.988 1.62259 0
761 1 Si 93.9844 31.8846 1.64097 0
762 1 Si 92.0304 34.3574 1.62129 0
763 1 Si 129.35 61.9086 1.61863 0
764 1 Si 132.592 61.0802 1.61951 0
765 1 Si 140.353 58.8611 1.61477 0
766 1 Si 100.555 35.038 1.62447 0
767 1 Si 154.84 59.1228 1.61327 0
768 1 Si 151.934 60.2993 1.62083 0
769 1 Si 13.3706 33.0157 1.62174 0
770 1 Si 11.7655 35.7502 1.63528 0
771 1 Si 16.6467 32.8059 1.62164 0
772 1 Si 23.8872 31.9124 1.63094 0
773 1 Si 19.1223 35.0734 1.62251 0
774 1 Si 22.3503 34.6517 1.62143 0
775 1 Si 156.487 61.7332 1.60554 0
776 1 Si 162.1 61.1997 1.61517 0
777 1 Si 159.35 63.0671 1.62042 0
778 1 Si 178.676 60.475 1.64863 0
779 1 Si 175.631 61.6979 1.6224 0
780 1 Si 184.082 59.8213 1.62751 0
781 1 Si 187.186 59.4801 1.62567 0
782 1 Si 48.311 34.0603 1.62661 0
783 1 Si 51.5088 35.1552 1.61825 0
784 1 Si 200.128 61.1708 1.63369 0
785 1 Si 196.974 61.8107 1.62969 0
786 1 Si 61.3047 32.5481 1.60209 0
787 1 Si 58.4618 34.2217 1.6275 0
788 1 Si 204.899 61.6116 1.62549 0
789 1 Si 2.61524 63.0907 1.62988 0
790 1 Si 5.15392 60.9914 1.60859 0
791 1 Si 6.18266 57.7914 1.65082 0
792 1 Si 64.6317 32.7664 1.62917 0
793 1 Si 110.224 64.7618 1.65062 0
794 1 Si 107.148 65.0364 1.62565 0
795 1 Si 105.652 62.377 1.61131 0
796 1 Si 121.613 64.2001 1.61531 0
797 1 Si 115.499 65.1276 1.63569 0
798 1 Si 118.715 65.8087 1.61601 0
799 1 Si 71.4824 34.534 1.63549 0
800 1 Si 65.7013 35.6741 1.63482 0
801 1 Si 68.7885 35.9971 1.61936 0
802 1 Si 124.547 65.7501 1.62144 0
803 1 Si 127.889 65.0091 1.65444 0
804 1 Si 76.6755 36.703 1.62386 0
805 1 Si 73.5522 37.0056 1.63185 0
806 1 Si 140.323 61.9269 1.64365 0
807 1 Si 134.401 63.6982 1.64404 0
808 1 Si 137.531 63.4472 1.61244 0
809 1 Si 143.236 63.1852 1.61315 0
810 1 Si 146.4 62.9584 1.62952 0
811 1 Si 153.608 63.0643 1.60352 0
812 1 Si 164.77 63.5088 1.61858 0
813 1 Si 168.119 63.0683 1.63293 0
814 1 Si 42.7669 35.1767 1.64138 0
815 1 Si 37.0728 36.681 1.62333 0
816 1 Si 40.3384 37.5852 1.63011 0
817 1 Si 181.65 61.863 1.631 0
818 1 Si 45.9701 36.3756 1.63489 0
819 1 Si 189.893 61.1615 1.63355 0
820 1 Si 202.27 63.5614 1.61882 0
821 1 Si 81.5229 38.0951 1.63318 0
822 1 Si 78.5848 39.3212 1.62246 0
823 1 Si 87.2623 38.2201 1.63697 0
824 1 Si 84.3561 39.6692 1.63068 0
825 1 Si 112.672 66.7622 1.62982 0
826 1 Si 92.8 37.644 1.62181 0
827 1 Si 90.1687 39.8336 1.64318 0
828 1 Si 99.0485 37.9532 1.6292 0
829 1 Si 95.8681 38.9932 1.62429 0
830 1 Si 119.81 68.8477 1.61942 0
831 1 Si 123.169 68.7204 1.62448 0
832 1 Si 130.091 67.5149 1.62086 0
833 1 Si 133.128 66.6482 1.63612 0
834 1 Si 13.6069 38.4098 1.60686 0
835 1 Si 11.2693 40.4715 1.62825 0
836 1 Si 138.826 66.2321 1.6304 0
837 1 Si 141.84 65.9026 1.63504 0
838 1 Si 19.0844 38.362 1.6351 0
839 1 Si 16.3454 40.0448 1.62575 0
840 1 Si 24.118 37.2872 1.61166 0
841 1 Si 22.0288 39.6723 1.60098 0
842 1 Si 148.366 65.5468 1.61568 0
843 1 Si 153.929 66.2923 1.6288 0
844 1 Si 151.026 67.4558 1.63641 0
845 1 Si 29.9935 36.8354 1.62624 0
846 1 Si 27.1147 38.2057 1.6189 0
847 1 Si 159.26 66.35 1.60495 0
848 1 Si 164.655 66.9054 1.62364 0
849 1 Si 161.78 68.448 1.61713 0
850 1 Si 31.8986 39.4711 1.62664 0
851 1 Si 35.1349 39.612 1.62564 0
852 1 Si 175.949 65.1405 1.62128 0
853 1 Si 169.804 65.9687 1.60581 0
854 1 Si 173.027 67.0528 1.63537 0
855 1 Si 46.9092 39.6616 1.63695 0
856 1 Si 41.0393 40.9557 1.62562 0
857 1 Si 44.2769 41.7532 1.63462 0
858 1 Si 52.6815 38.5752 1.64013 0
859 1 Si 50.1529 40.9212 1.62832 0
860 1 Si 58.5607 37.5825 1.62259 0
861 1 Si 56.0443 39.7141 1.6178 0