ITEM: TIMESTEP
2142
ITEM: NUMBER OF ATOMS
15696
ITEM: BOX BOUNDS pp pp pp
0.0000000000000000e+00 2.0540841729711295e+02
0.0000000000000000e+00 1.7788941042404235e+02
-1.0000000000000000e+02 1.0000000000000000e+02
ITEM: ATOMS id type element x y z v_uncoordination
1 1 Si 0.660358 0.372194 1.61957 0
2 1 Si 3.66073 177.271 1.62182 0
3 1 Si 204.102 175.719 1.63944 0
4 1 Si 205.092 172.66 1.63337 0
5 1 Si 2.69571 171.913 1.63285 0
6 1 Si 4.71753 174.288 1.62407 0
7 1 Si 0.977557 3.63223 1.63212 0
8 1 Si 4.07755 4.75187 1.62876 0
9 1 Si 5.66294 1.82479 1.60249 0
10 1 Si 201.09 3.85273 1.60594 0
11 1 Si 199.746 0.955768 1.63508 0
12 1 Si 203.805 5.5398 1.6331 0
13 1 Si 200.96 175.942 1.63306 0
14 1 Si 182.799 36.6088 1.63324 0
15 1 Si 180.956 33.6966 1.62757 0
16 1 Si 186.188 36.3053 1.62447 0
17 1 Si 185.645 30.0463 1.61514 0
18 1 Si 182.203 30.4734 1.61902 0
19 1 Si 187.329 33.0764 1.61568 0
20 1 Si 181.582 39.8084 1.6301 0
21 1 Si 177.621 33.8447 1.62287 0
22 1 Si 175.661 36.4286 1.61964 0
23 1 Si 175.976 39.6248 1.62902 0
24 1 Si 178.635 41.3999 1.63096 0
25 1 Si 188.104 39.1372 1.62052 0
26 1 Si 186.741 42.0112 1.6058 0
27 1 Si 183.615 42.3284 1.62527 0
28 1 Si 106.394 3.41769 1.63127 0
29 1 Si 109.621 4.2519 1.62951 0
30 1 Si 103.965 5.65505 1.62144 0
31 1 Si 110.216 7.49792 1.63048 0
32 1 Si 104.406 8.9366 1.62384 0
33 1 Si 107.725 9.81068 1.63249 0
34 1 Si 105.386 0.32796 1.63146 0
35 1 Si 112.172 2.09658 1.65112 0
36 1 Si 112.026 176.79 1.6201 0
37 1 Si 109.737 174.633 1.63863 0
38 1 Si 106.745 175.33 1.62794 0
39 1 Si 100.793 5.0605 1.61924 0
40 1 Si 98.5325 2.7455 1.63096 0
41 1 Si 99.3698 177.532 1.63045 0
42 1 Si 102.47 176.954 1.61537 0
43 1 Si 115.381 2.71818 1.647 0
44 1 Si 115.894 5.90966 1.63149 0
45 1 Si 113.475 8.22361 1.63333 0
46 1 Si 117.825 0.467034 1.63424 0
47 1 Si 114.345 174.646 1.62668 0
48 1 Si 117.438 175.19 1.63903 0
49 1 Si 121.448 3.98927 1.62579 0
50 1 Si 119.138 6.40204 1.63137 0
51 1 Si 121.013 0.831417 1.62665 0
52 1 Si 124.72 3.77834 1.60851 0
53 1 Si 124.866 7.06993 1.6299 0
54 1 Si 119.704 9.61304 1.61885 0
55 1 Si 122.883 9.74102 1.62725 0
56 1 Si 126.368 0.741254 1.63733 0
57 1 Si 123.636 176.701 1.62851 0
58 1 Si 130.202 6.01372 1.60898 0
59 1 Si 127.759 8.27531 1.62746 0
60 1 Si 131.419 2.89401 1.6231 0
61 1 Si 129.896 177.822 1.62734 0
62 1 Si 132.531 8.1902 1.62165 0
63 1 Si 131.754 11.3917 1.61686 0
64 1 Si 126.878 11.5263 1.63569 0
65 1 Si 129.216 13.6761 1.62573 0
66 1 Si 135.2 6.37689 1.6291 0
67 1 Si 134.663 3.19284 1.62598 0
68 1 Si 137.948 7.91611 1.62977 0
69 1 Si 137.436 11.1316 1.63942 0
70 1 Si 134.601 12.7994 1.62632 0
71 1 Si 140.631 6.07765 1.61968 0
72 1 Si 140.099 2.79386 1.63136 0
73 1 Si 137.139 1.09762 1.63512 0
74 1 Si 146.111 1.6345 1.63002 0
75 1 Si 142.937 1.28106 1.6195 0
76 1 Si 147.957 4.21451 1.63729 0
77 1 Si 146.501 7.08995 1.61379 0
78 1 Si 143.35 7.85421 1.63193 0
79 1 Si 146.98 176.444 1.6015 0
80 1 Si 143.833 176.178 1.60979 0
81 1 Si 151.209 3.98439 1.6352 0
82 1 Si 152.906 6.77566 1.61204 0
83 1 Si 151.622 9.72858 1.64566 0
84 1 Si 148.394 9.68976 1.60943 0
85 1 Si 153.115 1.34947 1.62527 0
86 1 Si 149.441 174.258 1.63227 0
87 1 Si 152.444 175.854 1.63271 0
88 1 Si 156.121 6.39427 1.61595 0
89 1 Si 155.949 3.12645 1.6224 0
90 1 Si 158.299 8.91049 1.61337 0
91 1 Si 156.898 11.8056 1.61386 0
92 1 Si 153.7 12.2767 1.64035 0
93 1 Si 163.679 7.46366 1.63666 0
94 1 Si 161.625 4.30321 1.65264 0
95 1 Si 161.51 9.86964 1.63548 0
96 1 Si 158.853 1.84517 1.64104 0
97 1 Si 166.785 3.2593 1.6182 0
98 1 Si 163.756 2.03804 1.63226 0
99 1 Si 168.694 5.91854 1.6252 0
100 1 Si 167.112 8.80442 1.61547 0
101 1 Si 167.467 0.230462 1.64459 0
102 1 Si 165.445 175.722 1.62524 0
103 1 Si 162.602 176.846 1.64153 0
104 1 Si 171.934 5.75735 1.63745 0
105 1 Si 173.669 3.12565 1.62231 0
106 1 Si 172.878 0.163282 1.62431 0
107 1 Si 170.138 176.657 1.62853 0
108 1 Si 174.504 7.65706 1.61139 0
109 1 Si 175.165 10.7505 1.63162 0
110 1 Si 169.264 11.8363 1.6234 0
111 1 Si 172.59 12.7219 1.62418 0
112 1 Si 176.859 3.12585 1.62757 0
113 1 Si 177.376 6.20349 1.63065 0
114 1 Si 178.125 0.218913 1.61381 0
115 1 Si 179.919 8.09236 1.60589 0
116 1 Si 183.095 7.34777 1.63183 0
117 1 Si 183.785 4.05203 1.63842 0
118 1 Si 180.71 176.219 1.62615 0
119 1 Si 183.122 0.630856 1.60892 0
120 1 Si 175.508 176.391 1.60452 0
121 1 Si 191.59 3.78715 1.60916 0
122 1 Si 194.01 5.80821 1.64164 0
123 1 Si 189.363 6.02607 1.62668 0
124 1 Si 190.72 8.8801 1.59928 0
125 1 Si 193.881 8.99037 1.59149 0
126 1 Si 190.543 0.823402 1.64143 0
127 1 Si 196.598 4.16598 1.63383 0
128 1 Si 196.57 0.97419 1.61638 0
129 1 Si 191.649 175.769 1.62592 0
130 1 Si 194.805 176.176 1.64513 0
131 1 Si 186.897 4.09113 1.63091 0
132 1 Si 187.452 0.975824 1.62285 0
133 1 Si 199.01 6.24905 1.6051 0
134 1 Si 195.318 49.1481 1.63008 0
135 1 Si 195.432 45.2375 1.64027 0
136 1 Si 192.783 51.6529 1.62649 0
137 1 Si 190.486 41.4001 1.63701 0
138 1 Si 193.617 42.0536 1.61809 0
139 1 Si 189.028 44.1964 1.58999 0
140 1 Si 188.559 47.3367 1.62399 0
141 1 Si 189.782 50.37 1.6349 0
142 1 Si 198.053 51.1461 1.62623 0
143 1 Si 198.464 43.977 1.63125 0
144 1 Si 201.571 44.9386 1.62117 0
145 1 Si 203.14 47.7434 1.63458 0
146 1 Si 201.308 50.4634 1.63205 0
147 1 Si 197.978 54.4589 1.62845 0
148 1 Si 192.682 55.317 1.61356 0
149 1 Si 195.685 56.722 1.62265 0
150 1 Si 200.065 9.28971 1.62453 0
151 1 Si 203.298 8.80864 1.62321 0
152 1 Si 101.248 10.2733 1.61489 0
153 1 Si 99.1775 7.8085 1.59818 0
154 1 Si 114.422 11.3893 1.62572 0
155 1 Si 117.608 12.2165 1.62965 0
156 1 Si 142.931 11.0626 1.61498 0
157 1 Si 140.159 12.7917 1.65086 0
158 1 Si 146.039 11.8299 1.62786 0
159 1 Si 162.404 13.1222 1.60978 0
160 1 Si 159.271 13.9785 1.62209 0
161 1 Si 178.417 10.9661 1.61621 0
162 1 Si 184.842 10.1439 1.61321 0
163 1 Si 190.576 12.0578 1.62374 0
164 1 Si 187.481 11.9011 1.61925 0
165 1 Si 195.087 12.0131 1.6562 0
166 1 Si 198.37 12.1748 1.61966 0
167 1 Si 205.237 11.4857 1.63827 0
168 1 Si 3.28418 10.9001 1.62826 0
169 1 Si 5.23113 7.95281 1.6299 0
170 1 Si 109.013 12.9101 1.61968 0
171 1 Si 104.409 16.3305 1.60684 0
172 1 Si 101.126 15.6124 1.6341 0
173 1 Si 107.68 15.8677 1.62907 0
174 1 Si 99.1837 12.9598 1.62826 0
175 1 Si 112.214 13.7401 1.61875 0
176 1 Si 123.843 12.8662 1.61955 0
177 1 Si 118.561 15.4315 1.62137 0
178 1 Si 121.923 15.7172 1.62887 0
179 1 Si 133.92 15.9419 1.6228 0
180 1 Si 128.53 17.1321 1.64135 0
181 1 Si 131.55 18.1852 1.62324 0
182 1 Si 146.821 14.8027 1.62598 0
183 1 Si 152.913 15.4265 1.63901 0
184 1 Si 149.756 16.0184 1.62422 0
185 1 Si 168.214 15.0084 1.62258 0
186 1 Si 164.942 15.5018 1.64952 0
187 1 Si 173.491 15.9235 1.60873 0
188 1 Si 170.616 17.4361 1.61727 0
189 1 Si 180.222 13.5816 1.64942 0
190 1 Si 183.3 12.9272 1.61554 0
191 1 Si 192.802 14.4227 1.62272 0
192 1 Si 199.945 15.1567 1.62866 0
193 1 Si 203.415 14.4992 1.63547 0
194 1 Si 113.163 16.9292 1.61584 0
195 1 Si 116.394 18.0946 1.63613 0
196 1 Si 139.519 15.9777 1.63657 0
197 1 Si 136.661 17.4526 1.62451 0
198 1 Si 144.763 17.1671 1.61019 0
199 1 Si 141.813 18.1809 1.64563 0
200 1 Si 158.653 17.0626 1.62833 0
201 1 Si 155.415 17.5756 1.62384 0
202 1 Si 164.473 18.8184 1.62254 0
203 1 Si 161.247 19.0421 1.62351 0
204 1 Si 179.229 16.6295 1.62711 0
205 1 Si 176.247 17.7517 1.63442 0
206 1 Si 185.918 14.5381 1.61854 0
207 1 Si 192.29 17.847 1.64711 0
208 1 Si 198.233 18.4004 1.61643 0
209 1 Si 194.822 20.061 1.62728 0
210 1 Si 0.00221662 17.1515 1.63433 0
211 1 Si 3.34214 16.6891 1.63555 0
212 1 Si 5.03225 13.7736 1.63773 0
213 1 Si 104.504 19.5037 1.62032 0
214 1 Si 101.58 20.3815 1.62163 0
215 1 Si 99.267 18.2762 1.59103 0
216 1 Si 110.124 18.2128 1.63425 0
217 1 Si 109.603 21.4867 1.6159 0
218 1 Si 106.467 21.9385 1.61799 0
219 1 Si 122.945 18.9046 1.62368 0
220 1 Si 126.119 19.7701 1.62303 0
221 1 Si 135.632 20.4889 1.62003 0
222 1 Si 132.502 21.3108 1.62974 0
223 1 Si 147.65 18.2956 1.61887 0
224 1 Si 147.779 21.2764 1.61728 0
225 1 Si 155.335 20.7216 1.61951 0
226 1 Si 150.222 23.0767 1.60444 0
227 1 Si 153.248 23.0117 1.62392 0
228 1 Si 171.134 20.7734 1.61717 0
229 1 Si 165.944 21.9025 1.6316 0
230 1 Si 169.026 23.2829 1.62736 0
231 1 Si 186.73 17.4419 1.62729 0
232 1 Si 181.15 19.197 1.62084 0
233 1 Si 184.263 19.2732 1.59786 0
234 1 Si 189.242 19.2847 1.6192 0
235 1 Si 200.726 20.6546 1.6231 0
236 1 Si 204.066 20.2002 1.63498 0
237 1 Si 117.591 21.3941 1.64373 0
238 1 Si 110.349 24.7261 1.6221 0
239 1 Si 116.15 24.5837 1.62258 0
240 1 Si 113.201 26.1872 1.62375 0
241 1 Si 120.924 21.57 1.6228 0
242 1 Si 141.014 21.2439 1.61362 0
243 1 Si 138.07 22.3831 1.63164 0
244 1 Si 145.693 23.5119 1.61626 0
245 1 Si 142.662 23.9117 1.64755 0
246 1 Si 157.789 22.7219 1.62392 0
247 1 Si 160.836 22.1462 1.61775 0
248 1 Si 176.683 21.0212 1.62309 0
249 1 Si 173.904 22.5967 1.62657 0
250 1 Si 179.782 22.0934 1.62242 0
251 1 Si 186.645 21.3658 1.61783 0
252 1 Si 193.789 23.6469 1.62637 0
253 1 Si 199.768 23.7426 1.63734 0
254 1 Si 196.789 25.0358 1.61277 0
255 1 Si 0.812512 22.7666 1.62609 0
256 1 Si 4.06111 22.4651 1.64139 0
257 1 Si 5.22025 19.3784 1.63092 0
258 1 Si 105.469 24.995 1.63598 0
259 1 Si 107.878 27.0203 1.62529 0
260 1 Si 125.681 23.2332 1.63162 0
261 1 Si 122.556 24.435 1.62284 0
262 1 Si 131.092 24.3695 1.62289 0
263 1 Si 128.006 25.6095 1.62421 0
264 1 Si 137.878 25.4893 1.6066 0
265 1 Si 132.639 27.2491 1.61047 0
266 1 Si 135.761 27.793 1.62848 0
267 1 Si 148.149 25.3315 1.59498 0
268 1 Si 157.241 25.819 1.64868 0
269 1 Si 154.129 26.0177 1.61881 0
270 1 Si 163.449 23.9427 1.60891 0
271 1 Si 173.893 25.8814 1.62016 0
272 1 Si 170.62 26.4157 1.60323 0
273 1 Si 185.218 24.3504 1.61958 0
274 1 Si 181.744 24.7841 1.63265 0
275 1 Si 187.389 26.927 1.61676 0
276 1 Si 190.939 26.4476 1.63201 0
277 1 Si 202.041 26.0602 1.61604 0
278 1 Si 205.262 25.8835 1.64449 0
279 1 Si 102.411 25.8817 1.62278 0
280 1 Si 100.705 23.303 1.60523 0
281 1 Si 117.779 27.4623 1.62597 0
282 1 Si 121.052 27.49 1.65421 0
283 1 Si 140.865 26.4678 1.59724 0
284 1 Si 148.71 28.2987 1.64403 0
285 1 Si 140.475 29.5819 1.63333 0
286 1 Si 146.122 30.0721 1.59372 0
287 1 Si 143.158 31.1789 1.63528 0
288 1 Si 162.886 27.0574 1.6367 0
289 1 Si 159.739 27.8029 1.62481 0
290 1 Si 176.493 28.1489 1.64759 0
291 1 Si 180.023 27.7687 1.62072 0
292 1 Si 197.387 28.2269 1.62286 0
293 1 Si 200.529 28.8873 1.62121 0
294 1 Si 1.66109 28.6258 1.61744 0
295 1 Si 4.6343 30.0162 1.63336 0
296 1 Si 6.14847 25.0174 1.61759 0
297 1 Si 7.15429 28.1543 1.63671 0
298 1 Si 112.82 29.5657 1.62971 0
299 1 Si 107.074 30.3383 1.61985 0
300 1 Si 110.131 31.8036 1.61392 0
301 1 Si 116.003 30.3001 1.63486 0
302 1 Si 127.833 29.0549 1.62781 0
303 1 Si 122.287 30.6115 1.61897 0
304 1 Si 125.457 31.5222 1.61832 0
305 1 Si 130.971 30.0741 1.61279 0
306 1 Si 151.877 28.1873 1.63762 0
307 1 Si 170.357 29.8353 1.62885 0
308 1 Si 165.007 29.4117 1.58975 0
309 1 Si 167.56 31.2943 1.64186 0
310 1 Si 175.522 31.3166 1.60775 0
311 1 Si 172.443 32.4488 1.61325 0
312 1 Si 191.924 29.6712 1.60299 0
313 1 Si 190.589 32.7404 1.64237 0
314 1 Si 195.066 30.4031 1.61928 0
315 1 Si 202.245 31.5919 1.6309 0
316 1 Si 0.06342 31.3642 1.62161 0
317 1 Si 103.897 32.0945 1.63377 0
318 1 Si 99.9321 27.9168 1.6385 0
319 1 Si 100.561 31.0882 1.61979 0
320 1 Si 117.29 33.387 1.64743 0
321 1 Si 120.562 33.425 1.61905 0
322 1 Si 10.4433 5.16336 1.635 0
323 1 Si 8.6706 8.01019 1.63455 0
324 1 Si 10.4336 1.90576 1.62463 0
325 1 Si 8.25586 177.568 1.64054 0
326 1 Si 13.597 4.81671 1.63476 0
327 1 Si 15.9186 6.85114 1.62573 0
328 1 Si 10.3081 11.0099 1.62503 0
329 1 Si 15.9981 9.9755 1.63081 0
330 1 Si 13.576 11.9899 1.62793 0
331 1 Si 14.9085 1.95731 1.61461 0
332 1 Si 12.8168 177.622 1.63833 0
333 1 Si 19.9933 2.7642 1.65341 0
334 1 Si 18.8329 5.682 1.62089 0
335 1 Si 17.7401 0.649272 1.61065 0
336 1 Si 137.404 30.5608 1.61928 0
337 1 Si 132.553 33.0862 1.63001 0
338 1 Si 135.919 33.4405 1.62632 0
339 1 Si 23.0846 2.31355 1.61105 0
340 1 Si 25.0321 4.79157 1.60998 0
341 1 Si 20.7858 8.08595 1.64444 0
342 1 Si 23.9032 7.75093 1.64587 0
343 1 Si 24.5879 177.416 1.62604 0
344 1 Si 19.7901 173.449 1.63152 0
345 1 Si 17.2927 175.409 1.63671 0
346 1 Si 22.8332 174.722 1.6241 0
347 1 Si 27.7362 3.10726 1.63717 0
348 1 Si 27.7988 177.798 1.60247 0
349 1 Si 33.2084 5.28309 1.63414 0
350 1 Si 30.1096 5.05611 1.63271 0
351 1 Si 32.8884 8.37671 1.5876 0
352 1 Si 29.7877 8.10511 1.59866 0
353 1 Si 35.8867 3.66031 1.64033 0
354 1 Si 35.6445 0.181422 1.61412 0
355 1 Si 33.3301 175.5 1.63628 0
356 1 Si 29.9235 175.293 1.63053 0
357 1 Si 37.8937 6.52179 1.64383 0
358 1 Si 37.8643 10.0256 1.62078 0
359 1 Si 32.9218 11.5056 1.65337 0
360 1 Si 35.8033 12.6388 1.62259 0
361 1 Si 40.9628 5.63169 1.6403 0
362 1 Si 42.2851 2.73396 1.61788 0
363 1 Si 38.4935 176.411 1.62177 0
364 1 Si 41.5371 177.435 1.62909 0
365 1 Si 159.025 30.8669 1.63295 0
366 1 Si 153.273 30.889 1.63588 0
367 1 Si 156.147 31.9806 1.62279 0
368 1 Si 50.5899 2.17641 1.62554 0
369 1 Si 47.4321 1.87771 1.60905 0
370 1 Si 46.1943 7.0057 1.6084 0
371 1 Si 45.2363 4.00223 1.62834 0
372 1 Si 52.8605 4.65631 1.63394 0
373 1 Si 51.9555 8.04584 1.63119 0
374 1 Si 48.6524 9.06101 1.63079 0
375 1 Si 49.8178 176.903 1.6319 0
376 1 Si 46.6284 176.705 1.60703 0
377 1 Si 43.1943 7.94802 1.61747 0
378 1 Si 56.1502 3.56962 1.62596 0
379 1 Si 57.0373 0.114634 1.64115 0
380 1 Si 51.3867 174.143 1.6352 0
381 1 Si 54.8087 175.113 1.61324 0
382 1 Si 58.5845 6.09116 1.63179 0
383 1 Si 57.8189 9.46341 1.63456 0
384 1 Si 54.4828 10.4048 1.62394 0
385 1 Si 62.8221 1.98291 1.65346 0
386 1 Si 61.9358 5.30832 1.65125 0
387 1 Si 60.4714 177.349 1.63251 0
388 1 Si 163.929 32.3359 1.61086 0
389 1 Si 160.991 33.3373 1.6143 0
390 1 Si 66.1394 1.15751 1.645 0
391 1 Si 68.4507 3.66591 1.63549 0
392 1 Si 67.658 6.97689 1.64534 0
393 1 Si 64.3753 7.78488 1.64592 0
394 1 Si 67.0775 175.754 1.63515 0
395 1 Si 64.8482 173.248 1.64263 0
396 1 Si 61.5774 174.1 1.65358 0
397 1 Si 71.695 2.78186 1.62203 0
398 1 Si 74.0464 5.20302 1.6377 0
399 1 Si 73.1736 8.46801 1.63365 0
400 1 Si 70.0142 9.46388 1.65304 0
401 1 Si 72.3462 177.385 1.63225 0
402 1 Si 70.2563 174.753 1.63448 0
403 1 Si 77.2969 4.58616 1.60185 0
404 1 Si 79.491 2.24697 1.62222 0
405 1 Si 78.4022 177.272 1.64588 0
406 1 Si 75.3753 176.399 1.61944 0
407 1 Si 79.8288 6.60286 1.60112 0
408 1 Si 78.4773 9.5078 1.62981 0
409 1 Si 75.4839 10.8401 1.62736 0
410 1 Si 82.7358 2.15714 1.61277 0
411 1 Si 82.9307 5.40047 1.64591 0
412 1 Si 84.7699 177.381 1.64236 0
413 1 Si 88.9833 6.22648 1.62895 0
414 1 Si 85.8088 7.01983 1.61855 0
415 1 Si 89.6445 2.95686 1.61288 0
416 1 Si 87.9641 0.0351016 1.62845 0
417 1 Si 83.7149 174.245 1.62803 0
418 1 Si 80.7513 175.215 1.61143 0
419 1 Si 195.403 33.572 1.61943 0
420 1 Si 201.025 34.5552 1.61632 0
421 1 Si 197.958 35.4089 1.62794 0
422 1 Si 90.9597 9.0061 1.61452 0
423 1 Si 86.3473 10.1941 1.62711 0
424 1 Si 89.1796 11.712 1.61359 0
425 1 Si 92.7986 2.10442 1.63249 0
426 1 Si 92.6629 176.732 1.60651 0
427 1 Si 89.8132 175.211 1.60757 0
428 1 Si 95.5111 4.0094 1.62239 0
429 1 Si 96.0266 7.2724 1.62939 0
430 1 Si 94.1529 9.93425 1.638 0
431 1 Si 94.7286 174.256 1.63229 0
432 1 Si 97.8908 174.605 1.62999 0
433 1 Si 2.09967 33.8159 1.63092 0
434 1 Si 5.24709 33.2116 1.60975 0
435 1 Si 109.931 35.2451 1.62607 0
436 1 Si 115.844 36.4263 1.62189 0
437 1 Si 112.614 37.2583 1.62697 0
438 1 Si 106.909 36.8896 1.62645 0
439 1 Si 103.851 35.4509 1.64436 0
440 1 Si 8.41908 13.7095 1.64035 0
441 1 Si 19.0831 10.7068 1.63163 0
442 1 Si 125.419 34.9604 1.63075 0
443 1 Si 131.14 36.0998 1.61845 0
444 1 Si 127.998 37.1259 1.62555 0
445 1 Si 25.2366 10.6159 1.61646 0
446 1 Si 28.3086 10.7768 1.62745 0
447 1 Si 147.834 32.6624 1.61475 0
448 1 Si 142.952 34.3493 1.61323 0
449 1 Si 145.97 35.0818 1.62734 0
450 1 Si 150.87 32.829 1.63305 0
451 1 Si 43.206 11.0891 1.62867 0
452 1 Si 40.2205 12.3428 1.62748 0
453 1 Si 152.376 35.4614 1.64715 0
454 1 Si 155.413 34.9973 1.62537 0
455 1 Si 46.4646 11.6223 1.63196 0
456 1 Si 166.357 34.2906 1.61139 0
457 1 Si 63.7374 11.1454 1.65443 0
458 1 Si 60.4061 11.8554 1.65091 0
459 1 Si 80.7585 11.5568 1.61204 0
460 1 Si 83.8128 11.9254 1.62548 0
461 1 Si 192.698 35.3249 1.61333 0
462 1 Si 193.633 38.5747 1.60516 0
463 1 Si 0.885915 36.7195 1.63468 0
464 1 Si 203.105 37.0021 1.61918 0
465 1 Si 95.6271 13.0496 1.62714 0
466 1 Si 122.324 36.2297 1.61902 0
467 1 Si 117.585 39.2808 1.61405 0
468 1 Si 120.983 39.3922 1.65726 0
469 1 Si 15.4653 14.7883 1.63258 0
470 1 Si 10.2859 16.4504 1.62406 0
471 1 Si 13.5396 17.284 1.63172 0
472 1 Si 20.7051 13.3696 1.62322 0
473 1 Si 23.873 13.4761 1.63252 0
474 1 Si 137.698 36.3037 1.61453 0
475 1 Si 132.956 38.8712 1.62674 0
476 1 Si 136.191 39.2318 1.61874 0
477 1 Si 140.952 36.7918 1.65536 0
478 1 Si 30.2553 13.2287 1.61222 0
479 1 Si 147.592 37.6671 1.63885 0
480 1 Si 150.674 37.9776 1.61514 0
481 1 Si 39.2465 15.5512 1.61216 0
482 1 Si 35.9755 15.9847 1.61063 0
483 1 Si 160.135 36.4187 1.6418 0
484 1 Si 157.136 37.5482 1.62356 0
485 1 Si 47.2172 14.7508 1.63433 0
486 1 Si 53.831 13.7642 1.63951 0
487 1 Si 50.623 15.0629 1.6118 0
488 1 Si 172.48 35.7667 1.6201 0
489 1 Si 69.4857 12.8542 1.63757 0
490 1 Si 66.2221 13.6481 1.64132 0
491 1 Si 75.0586 14.211 1.64553 0
492 1 Si 71.936 15.3423 1.63023 0
493 1 Si 80.1658 14.587 1.60691 0
494 1 Si 77.6545 16.3562 1.64826 0
495 1 Si 196.794 38.3749 1.61048 0
496 1 Si 90.1401 14.8644 1.63773 0
497 1 Si 93.3507 15.7715 1.62406 0
498 1 Si 2.93129 39.1985 1.64263 0
499 1 Si 6.16902 38.6379 1.63168 0
500 1 Si 7.52808 35.584 1.63259 0
501 1 Si 112.253 40.5694 1.62043 0
502 1 Si 115.334 41.7626 1.62851 0
503 1 Si 128.16 40.4897 1.61687 0
504 1 Si 131.245 41.6299 1.61661 0
505 1 Si 18.6684 15.7852 1.62552 0
506 1 Si 25.6173 16.1588 1.63779 0
507 1 Si 28.8799 16.1009 1.6339 0
508 1 Si 142.736 39.5764 1.65015 0
509 1 Si 145.952 40.2551 1.62123 0
510 1 Si 44.6986 17.1454 1.61457 0
511 1 Si 41.265 18.1876 1.64846 0
512 1 Si 165.495 37.4384 1.63129 0
513 1 Si 162.408 38.6092 1.63812 0
514 1 Si 59.8747 15.2101 1.64899 0
515 1 Si 56.566 15.8953 1.63385 0
516 1 Si 65.7213 17.0513 1.64771 0
517 1 Si 62.3902 17.698 1.64562 0
518 1 Si 155.428 40.3529 1.63153 0
519 1 Si 152.08 40.7774 1.60595 0
520 1 Si 170.867 38.641 1.62942 0
521 1 Si 167.782 39.6911 1.62124 0
522 1 Si 83.2066 14.9294 1.6258 0
523 1 Si 88.0133 17.3408 1.61708 0
524 1 Si 84.8431 17.4794 1.62295 0
525 1 Si 201.812 39.869 1.63352 0
526 1 Si 198.775 40.7954 1.62649 0
527 1 Si 106.748 40.182 1.63083 0
528 1 Si 104.031 41.9546 1.6233 0
529 1 Si 100.896 37.2043 1.62368 0
530 1 Si 101.097 40.5108 1.63045 0
531 1 Si 109.325 42.1868 1.61776 0
532 1 Si 8.45427 19.0718 1.62924 0
533 1 Si 122.758 42.4144 1.62315 0
534 1 Si 115.826 45.051 1.63111 0
535 1 Si 121.897 45.662 1.62562 0
536 1 Si 118.759 46.6435 1.61233 0
537 1 Si 126.042 42.9778 1.62225 0
538 1 Si 23.8548 18.8649 1.63922 0
539 1 Si 20.5579 18.4877 1.63843 0
540 1 Si 30.5896 18.8134 1.61965 0
541 1 Si 33.8608 18.8462 1.61868 0
542 1 Si 137.861 42.144 1.64551 0
543 1 Si 141.245 42.3629 1.62964 0
544 1 Si 50.3241 18.2474 1.62415 0
545 1 Si 47.2062 19.174 1.62066 0
546 1 Si 161.093 41.6192 1.62532 0
547 1 Si 157.827 42.5396 1.62751 0
548 1 Si 56.1218 19.1706 1.64816 0
549 1 Si 52.9846 20.0523 1.63397 0
550 1 Si 173.062 41.012 1.61562 0
551 1 Si 71.5795 18.8048 1.63551 0
552 1 Si 68.228 19.6173 1.62171 0
553 1 Si 182.916 45.4555 1.63423 0
554 1 Si 177.802 44.6528 1.63019 0
555 1 Si 180.049 46.9346 1.63151 0
556 1 Si 79.3732 19.2754 1.6398 0
557 1 Si 74.1571 21.3371 1.62853 0
558 1 Si 77.5321 21.9229 1.62341 0
559 1 Si 203.605 42.4263 1.63133 0
560 1 Si 1.37892 42.0667 1.64528 0
561 1 Si 93.5642 19.269 1.62453 0
562 1 Si 88.2563 20.5543 1.62316 0
563 1 Si 91.2371 21.9084 1.64703 0
564 1 Si 96.6659 20.2087 1.64438 0
565 1 Si 108.035 45.3003 1.63409 0
566 1 Si 104.659 45.1935 1.61499 0
567 1 Si 113.42 47.334 1.60098 0
568 1 Si 110.14 47.9317 1.62873 0
569 1 Si 10.3705 21.57 1.6244 0
570 1 Si 15.5225 19.9993 1.62985 0
571 1 Si 13.4465 22.2982 1.61925 0
572 1 Si 132.558 44.7209 1.63715 0
573 1 Si 127.158 46.1798 1.62486 0
574 1 Si 130.393 47.3693 1.64078 0
575 1 Si 135.944 44.8564 1.63281 0
576 1 Si 28.8446 21.608 1.62313 0
577 1 Si 25.53 21.7166 1.63319 0
578 1 Si 148.883 41.8624 1.63364 0
579 1 Si 143.945 44.5235 1.60516 0
580 1 Si 147.642 44.8002 1.63728 0
581 1 Si 39.4058 21.3194 1.61315 0
582 1 Si 33.6767 22.2952 1.62555 0
583 1 Si 36.6564 23.5894 1.63287 0
584 1 Si 46.6759 22.2483 1.62561 0
585 1 Si 41.0899 24.0156 1.62569 0
586 1 Si 44.1878 24.1539 1.62313 0
587 1 Si 166.776 42.852 1.62112 0
588 1 Si 163.593 43.7451 1.64105 0
589 1 Si 61.8034 21.0533 1.63086 0
590 1 Si 58.4953 21.5393 1.64624 0
591 1 Si 67.5695 23.0588 1.6227 0
592 1 Si 64.1121 23.7359 1.63394 0
593 1 Si 172.301 44.1284 1.62111 0
594 1 Si 169.165 45.102 1.63518 0
595 1 Si 82.7039 19.8644 1.60946 0
596 1 Si 185.361 47.4749 1.62306 0
597 1 Si 85.2427 21.9714 1.63791 0
598 1 Si 2.98541 44.8092 1.62464 0
599 1 Si 6.27675 44.2479 1.63356 0
600 1 Si 8.02039 41.3587 1.64116 0
601 1 Si 97.5651 23.3052 1.61494 0
602 1 Si 9.23226 24.4524 1.62137 0
603 1 Si 124.393 47.9787 1.62907 0
604 1 Si 18.6904 21.0668 1.62603 0
605 1 Si 138.004 47.4201 1.64027 0
606 1 Si 141.177 46.4181 1.61352 0
607 1 Si 30.7635 24.2574 1.61034 0
608 1 Si 156.724 45.6105 1.62888 0
609 1 Si 150.441 46.8322 1.6119 0
610 1 Si 153.749 47.07 1.64041 0
611 1 Si 52.3135 23.1598 1.63334 0
612 1 Si 49.3063 23.9815 1.62438 0
613 1 Si 162.508 46.7718 1.63291 0
614 1 Si 159.422 47.3757 1.62377 0
615 1 Si 57.5374 24.6745 1.64307 0
616 1 Si 54.4271 25.5064 1.63304 0
617 1 Si 174.87 46.124 1.6252 0
618 1 Si 73.5802 24.573 1.60733 0
619 1 Si 70.3337 25.3865 1.61307 0
620 1 Si 78.9847 25.0036 1.62001 0
621 1 Si 76.2111 26.7019 1.62572 0
622 1 Si 91.203 25.4537 1.63703 0
623 1 Si 85.053 25.2447 1.62118 0
624 1 Si 88.0699 26.8204 1.62572 0
625 1 Si 1.08317 47.5594 1.63504 0
626 1 Si 96.9639 26.436 1.63564 0
627 1 Si 93.9481 27.7517 1.63483 0
628 1 Si 115.046 50.1629 1.6155 0
629 1 Si 118.334 49.9113 1.61384 0
630 1 Si 11.5471 26.6054 1.63409 0
631 1 Si 14.4306 25.3058 1.61048 0
632 1 Si 109.874 51.294 1.61885 0
633 1 Si 112.926 52.6145 1.62581 0
634 1 Si 23.6946 24.5118 1.6451 0
635 1 Si 20.2599 24.0048 1.63231 0
636 1 Si 131.434 50.7864 1.62747 0
637 1 Si 137.073 50.6048 1.62282 0
638 1 Si 134.398 52.3271 1.62792 0
639 1 Si 29.0284 27.4261 1.62802 0
640 1 Si 25.5423 27.3978 1.62782 0
641 1 Si 36.4888 27.0645 1.59318 0
642 1 Si 39.6129 26.8299 1.62605 0
643 1 Si 143.336 48.5747 1.63259 0
644 1 Si 146.2 49.6229 1.63037 0
645 1 Si 149.266 49.7949 1.62112 0
646 1 Si 45.2547 27.1047 1.62397 0
647 1 Si 48.3382 26.9238 1.64379 0
648 1 Si 141.828 51.2431 1.58674 0
649 1 Si 144.691 52.3066 1.61248 0
650 1 Si 62.7285 26.9438 1.60473 0
651 1 Si 59.4978 27.2097 1.62165 0
652 1 Si 168.855 48.3291 1.60968 0
653 1 Si 163.675 49.7808 1.62965 0
654 1 Si 166.646 50.6562 1.62568 0
655 1 Si 184.711 50.5117 1.61308 0
656 1 Si 179.409 50.1795 1.62932 0
657 1 Si 181.955 52.0654 1.62385 0
658 1 Si 81.9633 26.7202 1.64679 0
659 1 Si 174.28 49.3344 1.62867 0
660 1 Si 171.282 50.3923 1.61382 0
661 1 Si 187.245 52.3854 1.6103 0
662 1 Si 2.94894 50.1796 1.62254 0
663 1 Si 6.05813 49.7851 1.6361 0
664 1 Si 7.78654 47.0853 1.65198 0
665 1 Si 107.422 53.5367 1.6279 0
666 1 Si 104.109 53.0627 1.61973 0
667 1 Si 101.942 47.2123 1.64023 0
668 1 Si 101.706 50.5875 1.6309 0
669 1 Si 10.1954 29.4266 1.62239 0
670 1 Si 124.211 51.4139 1.62055 0
671 1 Si 129.989 53.8344 1.627 0
672 1 Si 126.672 54.0239 1.62068 0
673 1 Si 17.5966 25.9542 1.63026 0
674 1 Si 120.884 52.1244 1.62327 0
675 1 Si 36.0557 30.4766 1.63709 0
676 1 Si 30.2109 30.7355 1.61458 0
677 1 Si 33.2447 32.2233 1.627 0
678 1 Si 139.291 52.902 1.6313 0
679 1 Si 40.7474 29.7358 1.62827 0
680 1 Si 43.8397 29.8634 1.64022 0
681 1 Si 154.357 50.1481 1.62367 0
682 1 Si 150.165 52.8498 1.64441 0
683 1 Si 153.225 53.0518 1.63868 0
684 1 Si 50.2061 29.38 1.63921 0
685 1 Si 53.2713 28.5119 1.63962 0
686 1 Si 159.583 50.4842 1.6348 0
687 1 Si 156.906 51.8379 1.60111 0
688 1 Si 70.7741 28.7213 1.64657 0
689 1 Si 62.8675 30.3251 1.62941 0
690 1 Si 68.4556 30.8345 1.59859 0
691 1 Si 65.5353 31.9746 1.64162 0
692 1 Si 161.952 52.4686 1.61325 0
693 1 Si 76.3612 30.0061 1.6188 0
694 1 Si 73.3376 30.8491 1.63197 0
695 1 Si 82.1033 30.0869 1.63982 0
696 1 Si 77.8931 32.9698 1.63555 0
697 1 Si 81.0182 33.2848 1.62986 0
698 1 Si 176.523 51.6759 1.62117 0
699 1 Si 87.7187 30.0573 1.64266 0
700 1 Si 84.8981 31.4245 1.62776 0
701 1 Si 94.5385 31.2186 1.62534 0
702 1 Si 89.3224 32.8341 1.62575 0
703 1 Si 92.3164 33.7201 1.63087 0
704 1 Si 17.7547 29.0704 1.6291 0
705 1 Si 12.213 32.0149 1.64924 0
706 1 Si 15.4591 31.3169 1.62462 0
707 1 Si 202.941 53.2295 1.58965 0
708 1 Si 2.98685 53.4105 1.63331 0
709 1 Si 0.259491 54.8593 1.63932 0
710 1 Si 108.309 56.7921 1.62452 0
711 1 Si 105.595 58.7067 1.62547 0
712 1 Si 103.301 56.2775 1.61682 0
713 1 Si 20.5678 30.5313 1.60573 0
714 1 Si 23.8012 30.2981 1.62623 0
715 1 Si 113.969 55.758 1.63013 0
716 1 Si 120.267 55.3281 1.6304 0
717 1 Si 117.224 56.6497 1.61892 0
718 1 Si 38.8462 32.2801 1.61012 0
719 1 Si 134.994 55.6721 1.63331 0
720 1 Si 131.943 56.7037 1.62273 0
721 1 Si 45.5078 32.5372 1.63447 0
722 1 Si 48.7117 32.1955 1.64262 0
723 1 Si 145.672 55.191 1.60633 0
724 1 Si 148.766 55.6649 1.62032 0
725 1 Si 58.2883 30.2081 1.61276 0
726 1 Si 55.2018 30.982 1.63976 0
727 1 Si 155.849 54.733 1.60528 0
728 1 Si 60.4275 32.587 1.59877 0
729 1 Si 167.084 53.8884 1.61657 0
730 1 Si 170.271 53.4733 1.63884 0
731 1 Si 182.61 55.1839 1.62667 0
732 1 Si 185.871 55.2976 1.63274 0
733 1 Si 200.923 55.6536 1.60813 0
734 1 Si 97.5779 32.744 1.62855 0
735 1 Si 5.5137 55.3824 1.61737 0
736 1 Si 7.19453 52.73 1.63121 0
737 1 Si 111.431 57.9554 1.62611 0
738 1 Si 122.749 57.5408 1.61038 0
739 1 Si 118.04 59.8121 1.62132 0
740 1 Si 121.308 60.4465 1.62005 0
741 1 Si 10.8522 35.0616 1.62922 0
742 1 Si 126.053 57.3937 1.62853 0
743 1 Si 18.2951 32.7672 1.62031 0
744 1 Si 140.221 55.9344 1.6433 0
745 1 Si 137.668 57.8084 1.61704 0
746 1 Si 143.198 57.0819 1.63886 0
747 1 Si 28.2515 33.4984 1.62741 0
748 1 Si 24.8677 33.4589 1.62093 0
749 1 Si 33.2249 35.6276 1.61473 0
750 1 Si 29.9674 36.3714 1.61908 0
751 1 Si 158.411 56.6034 1.63226 0
752 1 Si 150.045 58.5669 1.63373 0
753 1 Si 153.105 59.7662 1.61206 0
754 1 Si 156.467 59.2203 1.61519 0
755 1 Si 40.5243 35.1482 1.64132 0
756 1 Si 43.8824 35.3059 1.63933 0
757 1 Si 161.666 55.6561 1.63667 0
758 1 Si 164.929 56.4701 1.64352 0
759 1 Si 50.7076 34.6458 1.63543 0
760 1 Si 53.863 33.9138 1.63238 0
761 1 Si 175.629 54.8188 1.62753 0
762 1 Si 172.511 55.7312 1.6198 0
763 1 Si 69.0765 33.8804 1.59225 0
764 1 Si 66.1917 35.0756 1.60561 0
765 1 Si 74.092 34.0232 1.63136 0
766 1 Si 71.5305 35.7008 1.65645 0
767 1 Si 180.591 57.725 1.62929 0
768 1 Si 177.327 57.5638 1.62803 0
769 1 Si 76.6935 36.0101 1.61136 0
770 1 Si 84.9578 34.565 1.63609 0
771 1 Si 82.4485 36.355 1.63747 0
772 1 Si 190.565 58.2124 1.62722 0
773 1 Si 187.271 58.1912 1.63168 0
774 1 Si 87.8198 35.6468 1.61157 0
775 1 Si 97.6912 36.1184 1.63293 0
776 1 Si 91.9552 37.0935 1.62629 0
777 1 Si 95.0017 38.3251 1.6234 0
778 1 Si 196.307 59.983 1.62225 0
779 1 Si 191.002 61.66 1.62927 0
780 1 Si 194.059 62.3028 1.63384 0
781 1 Si 18.932 35.8104 1.62629 0
782 1 Si 12.7989 37.7149 1.63005 0
783 1 Si 16.1429 37.7077 1.60741 0
784 1 Si 202.575 58.3133 1.61457 0
785 1 Si 0.309867 58.0274 1.61117 0
786 1 Si 22.3414 35.8838 1.62489 0
787 1 Si 112.167 61.1528 1.62267 0
788 1 Si 110.4 63.9852 1.63308 0
789 1 Si 107.136 64.8656 1.63839 0
790 1 Si 104.917 62.1618 1.61816 0
791 1 Si 115.407 61.7003 1.62421 0
792 1 Si 35.5287 38.1739 1.63287 0
793 1 Si 38.9891 38.0312 1.62766 0
794 1 Si 49.3528 37.5755 1.64564 0
795 1 Si 46.0413 37.8342 1.64577 0
796 1 Si 128.056 60.2927 1.63695 0
797 1 Si 131.443 60.1193 1.6347 0
798 1 Si 56.0011 36.2361 1.6208 0
799 1 Si 59.2291 35.6828 1.63077 0
800 1 Si 144.433 59.9916 1.65032 0
801 1 Si 147.565 60.6486 1.61765 0
802 1 Si 151.977 62.8009 1.61861 0
803 1 Si 158.924 61.4244 1.6013 0
804 1 Si 157.115 63.9422 1.60921 0
805 1 Si 154.176 64.9967 1.63779 0
806 1 Si 166.201 59.5648 1.62046 0
807 1 Si 172.08 58.9167 1.62413 0
808 1 Si 169.315 60.5839 1.61704 0
809 1 Si 185.286 60.9005 1.62348 0
810 1 Si 181.92 60.7163 1.61176 0
811 1 Si 201.871 61.3492 1.61445 0
812 1 Si 198.791 62.0615 1.64509 0
813 1 Si 11.336 40.7068 1.61989 0
814 1 Si 1.99309 60.7219 1.6383 0
815 1 Si 5.25107 61.224 1.63383 0
816 1 Si 6.96994 58.268 1.63624 0
817 1 Si 22.6211 39.1345 1.62619 0
818 1 Si 16.81 40.8755 1.60749 0
819 1 Si 20.0561 41.2808 1.62561 0
820 1 Si 25.518 40.6409 1.62292 0
821 1 Si 28.7106 39.535 1.62919 0
822 1 Si 123.279 63.1264 1.63024 0
823 1 Si 126.663 63.3978 1.62669 0
824 1 Si 139.057 60.8855 1.64064 0
825 1 Si 142.175 62.2074 1.6389 0
826 1 Si 51.59 39.9917 1.64892 0
827 1 Si 54.7782 39.2098 1.62304 0
828 1 Si 148.868 63.5434 1.61583 0
829 1 Si 66.0013 38.2656 1.63457 0
830 1 Si 60.34 38.7188 1.62826 0
831 1 Si 63.3129 40.0422 1.62313 0
832 1 Si 71.6005 38.7942 1.62431 0
833 1 Si 68.7055 40.0488 1.61844 0
834 1 Si 161.752 63.0783 1.64018 0
835 1 Si 164.89 62.5642 1.6243 0
836 1 Si 175.138 59.9972 1.61751 0
837 1 Si 77.2295 39.3567 1.65358 0
838 1 Si 74.1978 40.6286 1.6202 0
839 1 Si 83.0642 39.6771 1.63396 0
840 1 Si 80.1089 41.3022 1.64776 0
841 1 Si 88.8873 38.63 1.6189 0
842 1 Si 86.3399 40.9878 1.64013 0
843 1 Si 186.41 64.0292 1.62339 0
844 1 Si 189.538 64.8239 1.63009 0
845 1 Si 95.2642 41.6662 1.61573 0
846 1 Si 98.4756 42.4135 1.62215 0
847 1 Si 175.961 63.1062 1.65466 0
848 1 Si 179.495 63.1129 1.63014 0
849 1 Si 204.8 62.6606 1.62824 0
850 1 Si 14.0013 42.639 1.63098 0
851 1 Si 21.1159 44.3429 1.61653 0
852 1 Si 24.343 43.7242 1.61257 0
853 1 Si 115.71 64.8461 1.62798 0
854 1 Si 121.649 65.8988 1.62537 0
855 1 Si 118.5 66.3506 1.62605 0
856 1 Si 112.769 66.1821 1.63008 0
857 1 Si 30.8832 42.0796 1.61834 0
858 1 Si 34.1664 41.248 1.62812 0
859 1 Si 133.733 62.9146 1.63499 0
860 1 Si 137.026 63.3049 1.63082 0