LAMMPS data file via write_data, version 2 Aug 2023, timestep = 136, units = metal

15336 atoms
2 atom types

8.677249324039952 194.3332373005103 xlo xhi
5.959809930490698 170.06175098679057 ylo yhi
-100 100 zlo zhi

Masses

1 28.085
2 15.999

Atoms # full

6525 1 1 0 8.734897886632229 8.021202783904956 -1.6455436018067957 0 0 0
9183 1 2 0 9.520682891272342 6.710699421824649 -2.278091509204009 0 0 0
9184 1 2 0 9.360587601361269 9.440604359259192 -2.2093640400996577 0 0 0
6529 1 1 0 10.262924132777073 10.711084599436072 -1.6523158725346798 0 0 0
9191 1 2 0 11.772484755364374 10.407198352306592 -2.2698958844781982 0 0 0
6531 1 1 0 13.292082386895505 10.500733752998787 -1.6085026334464856 0 0 0
12915 1 2 0 8.8187453247081 7.996382409786432 -7.272357421283131e-07 0 0 0
9193 1 2 0 14.429095148566953 9.487844081964779 -2.2746273149742797 0 0 0
9195 1 2 0 14.676913983395627 6.895339360352027 -2.149036384919111 0 0 0
9237 1 2 0 19.315006472366235 6.740873983323543 -2.2324641796207882 0 0 0
6532 1 1 0 15.407423780902432 8.299943991996114 -1.6449909769797073 0 0 0
9196 1 2 0 16.967170667054813 8.331063013110898 -2.2334408789002422 0 0 0
6559 1 1 0 18.50360370729084 8.063891624728056 -1.6416853262792228 0 0 0
9236 1 2 0 19.42068630448831 9.324961752523265 -2.1587511667670776 0 0 0
12949 1 2 0 18.42359033097705 7.965396472473304 -2.8605019347306664e-07 0 0 0
12922 1 2 0 15.47980284254525 8.43277494477752 -1.0926239157811139e-07 0 0 0
6560 1 1 0 20.171651578114005 10.689985900089585 -1.6338924432359925 0 0 0
9239 1 2 0 21.773306952587294 10.427956924789202 -2.1570920527173154 0 0 0
9610 1 2 0 24.771830608184995 9.629058762422433 -2.1524601628307263 0 0 0
6808 1 1 0 23.403392693028962 10.529160811519336 -1.6354327879229955 0 0 0
12950 1 2 0 20.29319161993064 10.911018796270673 -2.85999208091482e-07 0 0 0
9611 1 2 0 26.4298252161771 7.380252237178934 -2.1472643565418013 0 0 0
6807 1 1 0 26.29657077131881 9.001021880871852 -1.6495718365057734 0 0 0
9612 1 2 0 27.711592581150807 9.861954059833826 -2.133892623615104 0 0 0
6813 1 1 0 29.094474617018243 10.768698935369663 -1.6496386946949868 0 0 0
13197 1 2 0 26.284567207803192 9.054020747155905 -5.2996918132236363e-08 0 0 0
13203 1 2 0 29.09317719998507 10.732524829682886 -3.85179341806456e-07 0 0 0
9621 1 2 0 30.645104741078814 10.230271972994117 -2.1513694596009665 0 0 0
9632 1 2 0 32.2660251193182 8.062137365209875 -2.153547700050935 0 0 0
6821 1 1 0 33.01540499581487 6.650097238754842 -1.6476004423497232 0 0 0
9635 1 2 0 34.59306964795999 6.73398934105697 -2.207627512257693 0 0 0
6820 1 1 0 32.17909208158287 9.661304535378365 -1.6462858635619342 0 0 0
9633 1 2 0 33.61845039584957 10.445053641026085 -2.15791148956125 0 0 0
6826 1 1 0 35.1142154188815 11.098273486033447 -1.648038330160925 0 0 0
13216 1 2 0 35.092784574913615 11.03896410286733 -3.5738043512080646e-07 0 0 0
6831 1 1 0 36.16759845340195 6.675653295152004 -1.6475668098758638 0 0 0
9640 1 2 0 37.21856873049932 7.863188367113911 -2.1779745641003188 0 0 0
9639 1 2 0 36.58108171588182 10.39480660088406 -2.1445455947490046 0 0 0
13221 1 2 0 36.1333140217176 6.72235243378888 -4.863041796888346e-07 0 0 0
6824 1 1 0 37.821768115357045 9.336653859415815 -1.6462545307141878 0 0 0
9638 1 2 0 39.46002164695789 9.557857911116615 -2.1501739900500683 0 0 0
6825 1 1 0 41.12403832925331 9.516058331586667 -1.6486276954506351 0 0 0
13215 1 2 0 41.05808443784866 9.53835430389134 -1.2430639704114932e-07 0 0 0
9642 1 2 0 41.904016378520645 8.104921859827208 -2.1631150517441067 0 0 0
6832 1 1 0 42.62349385794549 6.672807860844483 -1.6482637930343513 0 0 0
9641 1 2 0 42.168994511263904 10.773092364878343 -2.1433843646106894 0 0 0
13222 1 2 0 42.652657125058255 6.678732122349746 -8.15474571446896e-07 0 0 0
9653 1 2 0 44.209453351263996 6.4107103313425435 -2.1792671201927334 0 0 0
9660 1 2 0 46.988496342417044 6.757988202835699 -2.196485270274895 0 0 0
6836 1 1 0 48.34445278873113 7.5618937740012235 -1.6490359504992176 0 0 0
9657 1 2 0 48.178815742596214 9.103682390269661 -2.222642436967523 0 0 0
6835 1 1 0 48.36499837233557 10.636240886652969 -1.647054171145566 0 0 0
9661 1 2 0 49.82585961024421 7.032283996781672 -2.227818957059909 0 0 0
6845 1 1 0 51.11643047387435 6.153239817702045 -1.6374726434351883 0 0 0
9659 1 2 0 49.75341167877812 11.280591207089529 -2.273258047666829 0 0 0
9664 1 2 0 52.35566950184325 10.69117191527066 -2.245932218649522 0 0 0
9673 1 2 0 52.67522404117686 6.383841161542431 -2.2014895750565344 0 0 0
6844 1 1 0 54.08252604001635 7.091865913144674 -1.6457505632657075 0 0 0
6839 1 1 0 53.766679161019255 10.100945537024376 -1.6465584760136898 0 0 0
9666 1 2 0 53.91976947205545 8.60018070393529 -2.25605640507829 0 0 0
9665 1 2 0 55.05815937486886 10.906209437087398 -2.2693884449235453 0 0 0
9674 1 2 0 55.57671707104018 6.623117123469008 -2.2254934924534755 0 0 0
6846 1 1 0 57.053391991205686 6.100936349149695 -1.642664895477929 0 1 0
6841 1 1 0 56.53824625051896 11.254536526630938 -1.6379007387505724 0 0 0
9669 1 2 0 57.72163572401704 10.270929927834068 -2.25044312318702 0 0 0
13231 1 2 0 56.51013250251697 11.085112240629115 2.4642803433941104e-08 0 0 0
9677 1 2 0 58.47919097009266 6.75501884428478 -2.212479144944025 0 0 0
6851 1 1 0 59.979522993454715 7.219851154083701 -1.6426833157346015 0 0 0
6850 1 1 0 59.264273162441015 10.12339861554213 -1.6472004114488603 0 0 0
9683 1 2 0 60.07371511837984 8.78705977822387 -2.1736369089291974 0 0 0
9684 1 2 0 60.1103593280429 11.406992033646441 -2.235680908676039 0 0 0
13240 1 2 0 59.216050979930856 10.108318295699958 -8.031268204112249e-07 0 0 0
13241 1 2 0 59.98695390574733 7.063838516245714 -2.4790072803277704e-07 0 0 0
9685 1 2 0 61.36923064500832 6.4674689960822525 -2.212056035951856 0 0 0
6857 1 1 0 62.94174556779532 6.283058255461504 -1.6492595592910448 0 0 0
9687 1 2 0 62.80275601543314 11.32316611593306 -2.242271442906928 0 0 0
9692 1 2 0 63.94183262916773 7.4808024712442736 -2.2245539628059343 0 0 0
9693 1 2 0 66.6826683880596 7.9932339725750055 -2.2194775551469945 0 0 0
6855 1 1 0 65.18631334760248 8.404216268076649 -1.6470017214389419 0 0 0
9691 1 2 0 64.99010531842627 9.917345841439179 -2.2526527702911903 0 0 0
6856 1 1 0 64.33694200322006 11.286895680972306 -1.647625565509541 0 0 0
13246 1 2 0 64.36733684485606 11.311308326897274 -5.434284910351894e-07 0 0 0
6862 1 1 0 68.21918477850693 8.229717983578883 -1.6484156398002892 0 0 0
13252 1 2 0 68.20615604895539 8.248396844838732 -3.769466083384211e-08 0 0 0
9703 1 2 0 69.0429516608549 6.945473833920567 -2.2555914090956306 0 0 0
6863 1 1 0 70.27593960431949 10.483881801645142 -1.6487990070811365 0 0 0
9702 1 2 0 68.97383645742369 9.606146219048265 -2.2026704820376435 0 0 0
9705 1 2 0 71.69359122604351 9.837806381768736 -2.2185496264481617 0 0 0
13253 1 2 0 70.28509194615387 10.46953520008832 2.6089163162858613e-08 0 0 0
6869 1 1 0 73.24761097282497 9.751321705771481 -1.6479047685259474 0 0 0
9714 1 2 0 73.94189120773707 8.373407526597273 -2.2312661287845117 0 0 0
9715 1 2 0 74.11987196917643 11.025581842425096 -2.239806467955239 0 0 0
6870 1 1 0 74.757750392591 7.054031383594693 -1.6493243950628058 0 0 0
9717 1 2 0 76.32675794166136 7.13411712277462 -2.2128624303782956 0 0 0
6879 1 1 0 77.89858823428082 7.194723619502162 -1.647915673896654 0 0 0
13269 1 2 0 77.85047483729062 7.244156166558713 -1.318013586266034e-06 0 0 0
13260 1 2 0 74.78578746757783 7.040015857149899 -2.903390955203838e-08 0 0 0
9727 1 2 0 78.82507904877266 8.446860800912036 -2.2286183957215377 0 0 0
9726 1 2 0 78.73387815349908 11.021013234828796 -2.242061176258093 0 0 0
6877 1 1 0 79.62462386021346 9.7752442196519 -1.6464301565651354 0 0 0
13267 1 2 0 79.65394546366375 9.728014408766919 -2.0476965992209582e-07 0 0 0
9728 1 2 0 81.18808820769398 9.986935050586409 -2.1957653332010025 0 0 0
9732 1 2 0 83.88501651914204 10.187805264732924 -2.2280558803485526 0 0 0
6880 1 1 0 82.49786132652098 10.868670749288894 -1.6482210079238493 0 0 0
13270 1 2 0 82.48950724903844 10.868306047905552 -2.9858729657242324e-07 0 0 0
6884 1 1 0 84.86272845798361 6.394566592600856 -1.6470793222790316 0 1 0
9736 1 2 0 85.21388209549826 7.947227531861879 -2.1868842887086823 0 0 0
6883 1 1 0 85.29582625140041 9.539443104744478 -1.6485914314696093 0 0 0
9737 1 2 0 86.56608056565456 10.517025929152416 -2.1869562167331273 0 0 0
9748 1 2 0 89.89643577413835 8.482026047424297 -2.205196862338457 0 0 0
9744 1 2 0 89.26490917591184 11.011335064129268 -2.1974242512236524 0 0 0
9750 1 2 0 88.7275317619538 6.005027273001256 -2.235746951007182 0 1 0
6891 1 1 0 89.97359186248116 6.925929340871273 -1.646990328940189 0 0 0
6890 1 1 0 90.41830304929897 9.958140216254353 -1.6469325764300262 0 0 0
13280 1 2 0 90.4728521940694 9.946465152414408 -4.6202603801417805e-07 0 0 0
9751 1 2 0 91.39371429014062 6.348760271675873 -2.2425088324450124 0 0 0
9760 1 2 0 94.07025465823793 6.4813080828760485 -2.210542926248569 0 0 0
6897 1 1 0 94.96846456715126 7.764915522467043 -1.648615296308911 0 0 0
9749 1 2 0 91.92232909100282 10.417101751889993 -2.2088227479208404 0 0 0
9758 1 2 0 94.3447491657465 9.20658474938868 -2.2046724188676197 0 0 0
6896 1 1 0 93.49793681483177 10.52659318041838 -1.649214210245693 0 0 0
13286 1 2 0 93.48557007616337 10.552762764647403 -1.7415270410855465e-07 0 0 0
13287 1 2 0 94.95512918429601 7.78860217452923 -2.9132891496147147e-07 0 0 0
9761 1 2 0 96.51428781709086 7.53606576062629 -2.2164038125448173 0 0 0
6901 1 1 0 98.03615160728586 7.90228370597689 -1.6501088613449006 0 0 0
9766 1 2 0 99.24580868947946 6.907264155620296 -2.2285714454880505 0 0 0
9764 1 2 0 98.3554026423463 9.431543439230355 -2.199186347935015 0 0 0
6899 1 1 0 99.34544836556836 10.63073587167893 -1.6465966653843533 0 0 0
9028 1 2 0 100.85592187978953 10.335528751710276 -2.24328832589277 0 0 0
13291 1 2 0 98.02631143163339 7.852563274073123 -5.05933513025188e-07 0 0 0
13289 1 2 0 99.34862982535444 10.678888532053332 -8.968326914919089e-07 0 0 0
9190 1 2 0 9.602937010046192 12.142852971429711 -2.221553957196756 0 0 0
9194 1 2 0 13.699827815323182 12.050191019707176 -1.9235862809486648 0 0 0
9235 1 2 0 13.784194007497158 14.563379227277661 -2.1888388693330256 0 0 0
6580 1 1 0 13.115749743609262 16.016649199282906 -1.6482100461899512 0 0 0
9267 1 2 0 11.643841040413214 16.650284004357765 -2.20884506550922 0 0 0
12970 1 2 0 12.976837233878861 15.922386331668438 -8.879316187157992e-07 0 0 0
6561 1 1 0 17.705663118151282 12.648761694907472 -1.49870848934536 0 0 0
9238 1 2 0 19.07344214270388 11.898005316236702 -2.1669191506416174 0 0 0
6558 1 1 0 14.723504909373979 13.287856241464151 -1.6086542644475603 0 0 0
9234 1 2 0 16.196746333423608 12.756941826465859 -2.2676485872531904 0 0 0
9240 1 2 0 18.053009281743936 14.236030130522956 -1.3275491787105025 0 0 0
9366 1 2 0 16.980385236046178 16.5729063631543 -2.2697914922058664 0 0 0
6912 1 1 0 18.248903192502503 15.843021742267497 -1.4913458474533514 0 0 0
12948 1 2 0 15.004096707851412 13.600808232451815 -3.516980118869347e-07 0 0 0
9781 1 2 0 19.671210543181928 15.9324921660054 -2.3522159775680604 0 0 0
9613 1 2 0 23.75608469621993 12.056823327439616 -2.1642095753476793 0 0 0
9623 1 2 0 21.81271373871811 14.078296228199363 -2.2499379662377614 0 0 0
6911 1 1 0 21.018353151431263 15.368004316410316 -1.5474652338778832 0 0 0
6814 1 1 0 23.285932859469042 13.549951903307152 -1.6509254320276319 0 0 0
9622 1 2 0 24.459669968712024 14.51545839629738 -2.265263871024159 0 0 0
9782 1 2 0 22.034099158717062 16.66057893264446 -1.5159794855476478 0 0 0
6816 1 1 0 25.826399312944055 15.192387405194616 -1.6495115908329632 0 0 0
9626 1 2 0 25.712146672152034 16.74955975375122 -2.2298814006694943 0 0 0
9620 1 2 0 28.959228763413535 12.371163272318855 -2.1816647955392736 0 0 0
9624 1 2 0 27.132740374691185 14.371066989887074 -2.2433784136792547 0 0 0
6815 1 1 0 28.6235516081307 13.932756927791257 -1.648609994628456 0 0 0
9625 1 2 0 29.62933661153053 15.16340969240446 -2.186171600896765 0 0 0
6915 1 1 0 30.398726762842273 16.549700597426558 -1.648723190937305 0 0 0
13305 1 2 0 30.354172639575133 16.594248915876804 -1.0217991988517347e-07 0 0 0
9643 1 2 0 35.1940096981833 12.684414481799758 -2.189608456497193 0 0 0
9647 1 2 0 34.53308008060835 15.33029868507509 -2.202741549577777 0 0 0
6828 1 1 0 35.64288771290791 14.19926574373715 -1.6493304043629653 0 0 0
9783 1 2 0 31.95753805406062 16.348366313557197 -2.206089494131646 0 0 0
6914 1 1 0 33.50997640967322 16.536733946674314 -1.6471852193486518 0 0 0
9646 1 2 0 37.19053078286192 14.554337671593768 -2.1993377167798216 0 0 0
6829 1 1 0 38.53853258520126 15.373680826976056 -1.646900079430504 0 0 0
9648 1 2 0 39.99562701809813 14.790920005605015 -2.2033086120472087 0 0 0
13219 1 2 0 38.52476389654153 15.328945885997367 7.556901785234689e-07 0 0 0
6827 1 1 0 43.09323119098771 12.124454346050046 -1.6442618155494344 0 0 0
6830 1 1 0 41.568677069492736 14.818089932790249 -1.6485082400477697 0 0 0
9644 1 2 0 42.211256634089445 13.406052355975465 -2.2078967781202055 0 0 0
9650 1 2 0 42.52458158686554 16.060899030732937 -2.23585265099219 0 0 0
13217 1 2 0 43.16757524316432 12.02065625720511 -4.83715568506156e-07 0 0 0
9645 1 2 0 44.680576016851376 12.49471930919416 -2.154645493632432 0 0 0
6837 1 1 0 46.26656818611575 12.853528671098772 -1.6435553099167055 0 0 0
13227 1 2 0 46.19773310699701 12.995448141387453 -2.1930731358724015e-08 0 0 0
9658 1 2 0 47.088961130998136 11.52379888558386 -2.19502542450957 0 0 0
6840 1 1 0 51.20833885488983 11.713030233056998 -1.6467426773346843 0 0 0
9662 1 2 0 47.21741206412075 14.180142095460447 -2.1586687583565407 0 0 0
6918 1 1 0 48.127627675868524 15.528000441531951 -1.6423565052302633 0 0 0
9789 1 2 0 47.28355321366447 16.8180273599468 -2.217177454135043 0 0 0
13308 1 2 0 48.22147282543613 15.389446274195677 -1.041200848425648e-07 0 0 0
9667 1 2 0 51.54974561663836 13.231961295520176 -2.2028381975840152 0 0 0
9790 1 2 0 49.68596737054324 15.977523071172396 -2.1651093724234314 0 0 0
6925 1 1 0 51.09816352384985 16.754541463317462 -1.6382806623550954 0 0 0
9672 1 2 0 52.33739842461792 15.776027867194493 -2.139889285731764 0 0 0
6843 1 1 0 52.72182698547799 14.256998891549598 -1.6441527780185334 0 0 0
9670 1 2 0 54.19876994698375 13.877825110964393 -2.2927399165820743 0 0 0
9668 1 2 0 56.76094232318432 12.829342277483187 -2.0978909488794035 0 0 0
6842 1 1 0 55.70964986312966 14.032738253205421 -1.6415258343639036 0 0 0
9671 1 2 0 56.411966175426535 15.421267120676108 -2.2075683520947598 0 0 0
13232 1 2 0 55.56615311059902 14.050129882694774 6.46921843332294e-07 0 0 0
9688 1 2 0 59.040702292605054 14.694066014382637 -2.1409704261810982 0 0 0
6853 1 1 0 60.61066505645584 14.857492485292195 -1.6425883249679123 0 0 0
6854 1 1 0 57.9173471937291 15.809924991363427 -1.6449174333526864 0 0 0
13243 1 2 0 60.695894575491906 14.874004508324807 -8.163159989424749e-07 0 0 0
6852 1 1 0 61.48345155063505 12.092796296932432 -1.6470012371675518 0 0 0
9686 1 2 0 61.525632983783474 13.62962291594062 -2.2373431385310316 0 0 0
9689 1 2 0 61.2240353223366 16.256926593402458 -2.248210551456452 0 0 0
9694 1 2 0 65.19239961001627 12.546295397302272 -2.262452359754476 0 0 0
6865 1 1 0 66.30466221874302 13.585994747438903 -1.6477048650777337 0 0 0
9708 1 2 0 65.93561519113754 15.061199222383316 -2.2675198351880046 0 0 0
9805 1 2 0 63.85188986779904 16.709176205700185 -2.2684154881777276 0 0 0
6929 1 1 0 65.3555749742579 16.463183195128806 -1.6489463994319955 0 0 0
13255 1 2 0 66.28423318065988 13.601754890131224 -3.420033428551384e-07 0 0 0
13319 1 2 0 65.34900116033882 16.446594577926998 -3.1316093010686074e-07 0 0 0
9706 1 2 0 67.78085047105384 13.135330983010647 -2.217561094198354 0 0 0
9704 1 2 0 70.18716572278818 12.049125929649707 -2.2044514616653506 0 0 0
6864 1 1 0 69.31381966845018 13.345632275220673 -1.6466410313414979 0 0 0
9707 1 2 0 69.85292685848805 14.80243588205912 -2.223070056169874 0 0 0
9721 1 2 0 72.35069342283151 15.611013588612163 -2.253469703001794 0 0 0
6874 1 1 0 70.86859833942735 15.981832624581324 -1.6485857040382328 0 0 0
13254 1 2 0 69.35347346247276 13.37367297717136 -1.1072090542792957e-07 0 0 0
6873 1 1 0 73.80817050563748 15.165323926194858 -1.647028565361648 0 0 0
9719 1 2 0 74.15587585818463 13.672531971650034 -2.241020421005784 0 0 0
6872 1 1 0 74.9204016179509 12.337100010721539 -1.6482317923695202 0 0 0
9720 1 2 0 76.45525282568174 12.353533666685985 -2.2496282473221036 0 0 0
6878 1 1 0 77.98669877574733 12.350446237538087 -1.646837643031975 0 0 0
9722 1 2 0 74.9181703785762 16.2399218320453 -2.226008792590498 0 0 0
9729 1 2 0 78.82247113890517 13.63065827748631 -2.2463733562434136 0 0 0
9735 1 2 0 79.02653548660228 16.204439689772695 -2.282204808970282 0 0 0
9731 1 2 0 82.50039217658538 12.42721420980996 -2.220917494227356 0 0 0
6882 1 1 0 79.73722638029122 14.86223636176905 -1.6489439415728764 0 0 0
9733 1 2 0 81.29900482139094 14.794966576637847 -2.1930429647545995 0 0 0
6881 1 1 0 82.63728338028366 13.976919391203193 -1.6465690208685504 0 0 0
9734 1 2 0 84.00481796430425 14.728132364743798 -2.218534386000998 0 0 0
6888 1 1 0 85.07655952065035 15.875279108136011 -1.6505524760591679 0 0 0
13278 1 2 0 85.07498630420535 15.883404632538207 -1.4504446178044336e-07 0 0 0
6887 1 1 0 87.79274641527807 11.553641644394922 -1.647334076728594 0 0 0
6889 1 1 0 87.98840483773738 14.728450884315253 -1.6484316645050996 0 0 0
9743 1 2 0 87.77661285745936 13.14649303598516 -2.182893946366481 0 0 0
9745 1 2 0 86.62759346283015 15.552843719214954 -2.1824013566279077 0 0 0
9747 1 2 0 89.403085953196 15.505519569551197 -2.172732513768425 0 0 0
13279 1 2 0 88.03362800411269 14.72479831626288 -2.0892063387713447e-07 0 0 0
6937 1 1 0 90.60268678206363 16.58846217842608 -1.648946460405565 0 0 0
9759 1 2 0 94.26200095650533 11.900350464077182 -2.2168342609509093 0 0 0
9770 1 2 0 94.1469961258614 14.577685968759 -2.183369417713253 0 0 0
6904 1 1 0 95.02013198856491 13.277296397468511 -1.646121874027406 0 0 0
9816 1 2 0 92.18000241156896 16.32287637686835 -2.1811199037510884 0 0 0
6936 1 1 0 93.76505122730441 16.10121388863649 -1.6459303489486075 0 0 0
13294 1 2 0 95.0495023630014 13.207861486277283 -4.8959529346742024e-08 0 0 0
9763 1 2 0 98.8136835977722 12.071746413247222 -2.2441972678998425 0 0 0
9765 1 2 0 96.57857867378627 13.484488641704361 -2.2063672708254756 0 0 0
6900 1 1 0 98.14783083649156 13.463179091243962 -1.6492017802722903 0 0 0
9275 1 2 0 99.08546948839592 14.72158317471516 -2.2220139796430955 0 0 0
6583 1 1 0 100.1397677626379 15.87940334319796 -1.6459796163246758 0 0 0
13290 1 2 0 98.14810806434298 13.509995906053433 -2.3355819914909012e-07 0 0 0
9265 1 2 0 8.876707323115753 17.21939905492644 -2.1371885195804032 0 0 0
6579 1 1 0 10.40225222590441 17.65181841204009 -1.6431869793536134 0 0 0
9268 1 2 0 10.355818031532145 19.235831364276333 -2.188772855104462 0 0 0
6617 1 1 0 9.53908152627558 20.594513518584566 -1.6494295870261635 0 0 0
9326 1 2 0 10.475584357368772 21.826089571916324 -2.234619945399322 0 0 0
9269 1 2 0 14.23296100461128 17.079263166890048 -2.249544778686885 0 0 0
6642 1 1 0 15.71095136813061 17.44621566045369 -1.6229336359789628 0 0 0
9365 1 2 0 15.793695597625652 19.031267135196728 -2.002235332475854 0 0 0
9363 1 2 0 15.73648929358929 21.606905704631618 -2.2720596765877166 0 0 0
6643 1 1 0 16.64474127922046 20.381916672912137 -1.6260285742712965 0 0 0
9367 1 2 0 18.13438301995975 20.110605266020954 -2.3148878982302503 0 0 0
6982 1 1 0 19.582147491428476 19.963842576093832 -1.5189051954338306 0 0 0
9887 1 2 0 20.094975589583353 21.5153800073425 -1.491923930206883 0 0 0
6954 1 1 0 22.02805711659629 18.314072362626504 -1.5365220845780279 0 0 0
9845 1 2 0 20.69230273283572 18.975163127781908 -2.2859012617757406 0 0 0
9843 1 2 0 23.48696472471707 18.594670146956094 -2.3017084472822895 0 0 0
6953 1 1 0 24.851101705066956 17.98984928190539 -1.5395745294460135 0 0 0
9937 1 2 0 22.62307422324272 21.843781224695654 -2.170504077204444 0 0 0
13407 1 2 0 24.28012213640031 22.202443939610248 -1.4851744924016766e-07 0 0 0
9844 1 2 0 25.913528047694072 19.20874514059449 -1.4922973369524808 0 0 0
9848 1 2 0 25.513913646735226 21.734142704797094 -2.2773699839369193 0 0 0
6955 1 1 0 29.427657973819784 19.577243665949158 -1.6531609823961684 0 0 0
9785 1 2 0 29.729647285643615 18.00809586229558 -2.1900268507865643 0 0 0
6956 1 1 0 26.59916815004927 20.682744720433995 -1.524057810708983 0 0 0
9846 1 2 0 28.063004378416977 20.356299668559362 -2.2609709932664215 0 0 0
13346 1 2 0 26.92030920232149 21.269955244704345 -1.1760453049770718e-06 0 0 0
13345 1 2 0 29.33741164395217 19.52786625140318 -6.444528859961032e-07 0 0 0
9847 1 2 0 30.64934955583575 20.586754765175034 -2.176100626742431 0 0 0
6987 1 1 0 31.262108186643843 22.03092912207485 -1.6449180369010332 0 0 0
13377 1 2 0 31.240276041963863 22.056785912087182 -1.0532553267767301e-07 0 0 0
9784 1 2 0 33.93378196166397 18.060546434771908 -2.182593955204896 0 0 0
6917 1 1 0 35.06627604464071 19.148376622513275 -1.6455568750217704 0 0 0
9891 1 2 0 32.78543666617441 22.199720337016288 -2.2366751546092978 0 0 0
9788 1 2 0 34.92055080024969 20.694438969568843 -2.2249134865115168 0 0 0
6986 1 1 0 34.316085770824536 22.12960409565186 -1.648849837733113 0 0 0
13307 1 2 0 35.03496355373326 19.20316530904974 -7.612216000557186e-08 0 0 0
13376 1 2 0 34.37240381071689 22.161332946434968 -4.087597573418486e-07 0 0 0
9649 1 2 0 38.532780682797174 16.92158081279774 -2.228569771052083 0 0 0
9786 1 2 0 36.48877896522989 18.58029004429599 -2.2391292285607363 0 0 0
6916 1 1 0 38.00275497994652 18.362360044256175 -1.6476680569532733 0 0 0
9787 1 2 0 38.95862307564971 19.54561206598928 -2.2795073555861087 0 0 0
9850 1 2 0 38.94713606522199 22.250859402495042 -2.2217718923067884 0 0 0
6957 1 1 0 39.657465567750805 20.89123469294729 -1.6438802515328965 0 0 0
9849 1 2 0 41.19837411144508 21.008351228306623 -2.196930052569508 0 0 0
13347 1 2 0 39.59829102869547 20.821965886615907 -6.875901324735292e-07 0 0 0
13306 1 2 0 38.017449253669334 18.368728200868517 -5.000564003542039e-07 0 0 0
6919 1 1 0 43.32187724349583 17.394200557359966 -1.6430341962328099 0 0 0
9791 1 2 0 44.856232936011 17.680464219978347 -2.2180845381095744 0 0 0
9792 1 2 0 42.461858536837255 18.70225112685719 -2.1837594581075774 0 0 0
6958 1 1 0 42.544886065070756 20.26032826286269 -1.6446458050645545 0 0 0
13348 1 2 0 42.64699667404969 20.236313687796038 -9.633034581955522e-08 0 0 0
6920 1 1 0 46.37361328990212 18.054429568627807 -1.6490821926879087 0 0 0
9851 1 2 0 43.77727608176396 21.145114453985144 -2.293904445661302 0 0 0
9897 1 2 0 46.25349776371662 21.950625582977146 -1.9827296121244689 0 0 0
6991 1 1 0 44.71618931447943 22.324606567534005 -1.617305130369195 0 0 0
9793 1 2 0 47.09890757733794 19.439196078500135 -2.25315067326517 0 0 0
6990 1 1 0 47.475431415488046 20.932306069898182 -1.6110167875390518 0 0 0
9898 1 2 0 48.74025377590251 21.831830776560853 -2.2377582997958303 0 0 0
9800 1 2 0 51.685749002160435 18.240006806108248 -2.207469044402183 0 0 0
9856 1 2 0 51.892154276895624 20.876510515252193 -2.2248938136464314 0 0 0
6961 1 1 0 52.64526612251126 19.506064904143763 -1.6468931787361012 0 0 0
9855 1 2 0 54.227453283116795 19.760498430405423 -2.1818764264990933 0 0 0
13351 1 2 0 52.70634924332513 19.365986849641928 -3.474123652269766e-07 0 0 0
9857 1 2 0 56.75238960463874 19.279300598851506 -2.1969107723188426 0 0 0
6963 1 1 0 55.679098671210596 20.40286344565612 -1.646025809143781 0 0 0
9859 1 2 0 56.35379378412963 21.834396333320637 -2.246497000616244 0 0 0
13353 1 2 0 55.57315432272042 20.556507083143817 -2.7293859365131157e-07 0 0 0
9690 1 2 0 58.38054292084778 17.250718990251674 -2.2765354326931724 0 0 0
6930 1 1 0 62.419993174419844 17.214396597597776 -1.6462777343848145 0 0 0
6962 1 1 0 58.205021810246414 18.760438832642613 -1.646162749599889 0 0 0
9858 1 2 0 59.45827371965086 19.65201736241919 -2.241537662667595 0 0 0
6997 1 1 0 60.98747602415038 19.82665775108333 -1.6469435560591412 0 0 0
9807 1 2 0 62.084761168092555 18.72370783125784 -2.206508551075968 0 0 0
9908 1 2 0 61.49183220642818 21.257303577216604 -2.2550420187205544 0 0 0
7000 1 1 0 62.585412723849245 22.31492416056101 -1.6476918994688867 0 0 0
13390 1 2 0 62.631682028034966 22.31324732934021 -9.737078044086358e-07 0 0 0
9806 1 2 0 66.34034964638764 17.630376398918923 -2.2464130474666004 0 0 0
9910 1 2 0 64.07712031996238 22.001638549602355 -2.2644789768137175 0 0 0
6999 1 1 0 65.57247178211793 21.719748845836214 -1.6466802708764434 0 0 0
9865 1 2 0 66.04101048473063 20.268918545859727 -2.2581431672724306 0 0 0
6967 1 1 0 66.93620086990822 19.03382384899149 -1.647038505079217 0 0 0
13357 1 2 0 66.93190543280583 19.042397858406932 -4.3854308732435696e-07 0 0 0
9863 1 2 0 68.45247864480288 19.165926666089405 -2.245769445218448 0 0 0
9723 1 2 0 70.50101146101937 17.48331064477274 -2.241343445182287 0 0 0
6966 1 1 0 69.96282207760036 18.933436489434506 -1.6466341032782148 0 0 0
9864 1 2 0 70.78325772888988 20.239968310135726 -2.228920918171605 0 0 0
6971 1 1 0 71.53796280463007 21.594601084363575 -1.6482384375334038 0 0 0
13356 1 2 0 70.02025181002809 18.904859653622424 -1.4264535870071769e-07 0 0 0
13361 1 2 0 71.48348017551979 21.633473775987117 7.506193266591935e-07 0 0 0
9869 1 2 0 73.08822180464934 21.40774690878403 -2.217770014640631 0 0 0
6931 1 1 0 78.42131646042813 17.590780870153765 -1.6449505791378924 0 0 0
6932 1 1 0 75.38473862848535 17.711317354079238 -1.647439824648195 0 0 0
9808 1 2 0 76.9149456790946 17.953535279749016 -2.233807971036793 0 0 0
9810 1 2 0 74.31384278102682 18.87948208060086 -2.163909785043386 0 0 0
6970 1 1 0 74.32276774377888 20.46618395278428 -1.6451736389382032 0 0 0
9870 1 2 0 75.71139416421144 21.097649903639834 -2.2504470928628297 0 0 0
7006 1 1 0 77.023847403271 21.875456375945507 -1.6544653265575986 0 0 0
13360 1 2 0 74.29218049083985 20.506783346992272 -7.408519682788237e-07 0 0 0
9809 1 2 0 79.47156852744341 18.745838651533116 -2.168243035378289 0 0 0
9814 1 2 0 78.37842796537134 21.18515532301679 -2.272612289234632 0 0 0
6934 1 1 0 79.60532420970377 20.299321619212158 -1.6418848332552074 0 0 0
9746 1 2 0 84.5349741188598 17.34905359419313 -2.2245100461212455 0 0 0
9811 1 2 0 83.42968995054804 19.939760526600697 -2.267004570852183 0 0 0
9813 1 2 0 80.9926240758568 20.90657930618954 -2.2629994035227026 0 0 0
6935 1 1 0 82.49652190314477 21.165050514772442 -1.6450015664662418 0 0 0
6933 1 1 0 84.57242327229355 18.90426397318718 -1.64130567034912 0 0 0
9812 1 2 0 86.0023761805317 19.525825435494173 -2.1569666333586595 0 0 0
6975 1 1 0 87.04921143168245 20.675598888563535 -1.6455463248527629 0 0 0
9877 1 2 0 86.61094446633767 22.15065069824085 -2.285039604419895 0 0 0
9875 1 2 0 88.46672299194636 20.14315366224145 -2.2705143761301767 0 0 0
6974 1 1 0 89.90577067806144 19.640690193228114 -1.6486255270009251 0 0 0
9818 1 2 0 90.22891160760274 18.115189892852957 -2.2105537040526073 0 0 0
9817 1 2 0 95.01161102196605 17.110312467965617 -2.181976318196205 0 0 0
9834 1 2 0 95.14009804830108 19.685826245729725 -2.2345379243556054 0 0 0
9876 1 2 0 90.92219212091125 20.800813082423883 -2.235645419964967 0 0 0
7010 1 1 0 91.91113145620668 21.97567958763714 -1.6446280808872897 0 0 0
9925 1 2 0 93.36341674643671 21.56110256168615 -2.262542228491446 0 0 0
7009 1 1 0 94.82144618082175 21.18072488995387 -1.650608860047464 0 0 0
13400 1 2 0 91.85843474137558 21.99625912245533 -5.556784680792238e-07 0 0 0
6947 1 1 0 95.97131151685664 18.39273990988848 -1.6446036729789504 0 0 0
9926 1 2 0 95.82244512302 22.302299811468817 -2.3253148209334324 0 0 0
9274 1 2 0 99.67958544630831 17.350832639507267 -2.2085665886840977 0 0 0
13337 1 2 0 96.04914610697608 18.269813914759087 -5.893872685434808e-07 0 0 0
6584 1 1 0 99.13591235756955 18.796975822563635 -1.6425045691041975 0 0 0
9276 1 2 0 97.53677557625093 18.727693938600275 -2.172309245684467 0 0 0
9272 1 2 0 100.2711118423725 19.935381975452785 -2.1909301843142095 0 0 0
6582 1 1 0 101.35472931641677 21.12181228892711 -1.6532005234997866 0 0 0
12974 1 2 0 99.11422449820851 18.93934980983571 -2.069986885580394e-06 0 0 0
6640 1 1 0 11.59937585474449 22.875067963181117 -1.647787545737345 0 0 0
9361 1 2 0 13.0910647142747 22.433105876928284 -2.2314029626115235 0 0 0
13030 1 2 0 11.612385991298302 22.87989144728295 -7.398021612375834e-07 0 0 0
9362 1 2 0 11.16783268374325 24.372939802715816 -2.204339052697161 0 0 0
6664 1 1 0 10.300743216592036 25.67135936850847 -1.6477636642104758 0 0 0
9399 1 2 0 11.16390065810246 26.987320739426593 -2.217403613587826 0 0 0
9397 1 2 0 8.714358507156287 25.591655606067885 -2.1921468569876126 1 0 0
9428 1 2 0 13.889079474853142 27.745208085437326 -2.217289366727535 0 0 0
13054 1 2 0 10.25774688512721 25.726941050256052 -7.459625300452178e-07 0 0 0
6641 1 1 0 14.623687020583642 22.67208158766139 -1.6458301162023887 0 0 0
13031 1 2 0 14.605661292373453 22.5440011369482 -4.2153032320833453e-07 0 0 0
9364 1 2 0 15.052454401670762 24.18876785778882 -2.1565000594827133 0 0 0
6687 1 1 0 16.382938862819504 25.028643215061106 -1.6483535880312334 0 0 0
9435 1 2 0 17.722013885893972 24.1572551162963 -2.1666256497195016 0 0 0
9434 1 2 0 16.26626034277602 26.576440348667937 -2.232636037909667 0 0 0
7055 1 1 0 19.210934628271595 24.702115137853234 -1.6354001803118132 0 0 0
9995 1 2 0 19.045630220556507 26.295662552444675 -2.0464300362677212 0 0 0
13077 1 2 0 16.411534039894143 25.110678659878065 -7.290733336418475e-08 0 0 0
7018 1 1 0 21.283062473756416 22.63636014845933 -1.5301851668692201 0 0 0
7017 1 1 0 24.116038830415057 22.406547080054725 -1.6373520166797428 0 0 0
7058 1 1 0 19.74438872499955 27.727792886272713 -1.6366190721828124 0 0 0
9939 1 2 0 20.544423843368552 23.942008741926163 -2.3009764391974086 0 0 0
9938 1 2 0 23.844487313153298 23.984733224827234 -2.1023003378888485 0 0 0
7024 1 1 0 24.577829442748108 25.375527629419413 -1.6302112136565006 0 0 0
9949 1 2 0 23.806378427322663 26.706428031832544 -2.2706781624824677 0 0 0