LAMMPS data file via write_data, version 23 Jun 2022, timestep = 12190

15408 atoms
2 atom types

5.8592394732128055 197.65214031166136 xlo xhi
4.2151647620072294 172.00351801746592 ylo yhi
-100 100 zlo zhi

Masses

1 28.085
2 15.999

Atoms # full

6530 1 1 0 6.851861104567072 6.105032626871056 -1.6077343908868036 0 0 0
9180 1 2 0 7.258824863264278 4.557677327853059 -2.0954120096435065 0 0 0
6540 1 1 0 11.135388320572659 5.436756749772437 -1.6099871851658745 0 0 0
9196 1 2 0 12.479282840976893 6.241958135770817 -2.087437294337038 0 0 0
9245 1 2 0 15.020698266430971 5.9427260682381835 -2.1429229277141855 0 0 0
6807 1 1 0 16.0509417120758 4.789127137478632 -1.5965216317591346 0 0 0
9597 1 2 0 17.556246252227112 5.344875007469807 -1.8635207487113075 0 0 0
9595 1 2 0 20.078220877095514 5.931459383294627 -2.157172806699368 0 0 0
6801 1 1 0 18.654601238344863 6.517587555735463 -1.602762740304395 0 0 0
6802 1 1 0 21.488206880942105 5.271894305894972 -1.6499533635970913 0 0 0
9598 1 2 0 22.68045274221201 6.2756689496479945 -2.08688112030138 0 0 0
9612 1 2 0 28.40971049325805 5.587238530428556 -2.0961977111590033 0 0 0
9624 1 2 0 34.470040104809215 5.446540527624951 -2.1445914531473815 0 0 0
6832 1 1 0 39.139427192180044 5.85074472244749 -1.62694520907463 0 0 0
9647 1 2 0 39.37235475870584 4.286708203085642 -2.0302596840978366 0 0 0
9648 1 2 0 40.606089312665276 6.2727200956709455 -2.1665264857721587 0 0 0
9653 1 2 0 43.3487611652959 6.029867921938249 -2.0249472888383595 0 0 0
6840 1 1 0 44.913634062536396 5.772423592595879 -1.6329771359803131 0 0 0
9661 1 2 0 45.56423682982646 4.349552415534198 -2.1227126926095807 0 0 0
9675 1 2 0 51.02939107421745 5.2991137265262935 -2.0881557238034723 0 0 0
6864 1 1 0 56.93569439107238 5.96534623486569 -1.5757037715703992 0 0 0
9701 1 2 0 56.41592904171552 4.451834511631614 -1.7822926279212061 0 0 0
9699 1 2 0 58.462026730565064 6.16670730441272 -2.1378839075286407 0 0 0
6863 1 1 0 59.96141078536441 6.587279645862545 -1.6162106265096527 0 0 0
9700 1 2 0 61.26061254923274 5.649220341504838 -1.945885706407481 0 0 0
6870 1 1 0 62.13667866159941 4.30610480567694 -1.6052894071532398 0 1 0
9710 1 2 0 63.71827665501519 4.389145983387402 -2.130779000343406 0 0 0
6871 1 1 0 65.31249547227338 4.5942588262217825 -1.6465965132223164 0 0 0
9708 1 2 0 65.91507695939161 6.117313126690742 -2.0487284426393635 0 0 0
9721 1 2 0 71.03808615648795 6.226987168681946 -2.1488275030827046 0 0 0
6880 1 1 0 71.4970186458521 4.739957777602235 -1.6047879445448596 0 0 0
9727 1 2 0 73.0319044619054 4.359030553788994 -2.023208021642125 0 0 0
6881 1 1 0 74.59876491066203 4.554247891596834 -1.6063193887243266 0 0 0
9725 1 2 0 75.10872619447433 6.004315444720157 -2.1668547950378794 0 0 0
9750 1 2 0 81.43263937192427 4.771896021649977 -2.1356753919414433 0 0 0
6893 1 1 0 81.29355141502899 6.336989630634386 -1.6275260635067257 0 0 0
9751 1 2 0 88.21316831777472 5.169465418192016 -2.011047666750813 0 0 0
6894 1 1 0 88.78760517314605 6.660464503372661 -1.613534807978594 0 0 0
9774 1 2 0 92.85445682584177 4.236212288974206 -2.0695607447482103 0 1 0
6909 1 1 0 94.42623229246519 4.717986111135699 -1.603338221581659 0 0 0
9769 1 2 0 94.80516208395521 6.298795069591286 -1.9134785765602 0 0 0
9026 1 2 0 98.75172270116973 5.074435136564089 -2.0793954080412473 0 0 0
6440 1 1 0 100.2375057488073 5.664362376587059 -1.6413842762625013 0 0 0
9025 1 2 0 101.5629909914808 4.809294221215597 -2.1048961939898225 0 0 0
9179 1 2 0 7.8781621683675365 7.366640727528998 -1.8939007949600553 0 0 0
6532 1 1 0 9.30360120963866 8.1552357106908 -1.5961080373625225 0 0 0
9184 1 2 0 10.209475048271276 6.794414830071817 -2.0925874680372547 0 0 0
6572 1 1 0 13.851113063921938 6.980222084975391 -1.6419772729939222 0 0 0
9243 1 2 0 13.929489966270616 8.557261673120175 -2.10719743315781 0 0 0
9596 1 2 0 18.143309410090694 7.978363199135491 -2.156314938667513 0 0 0
9601 1 2 0 22.44795214652173 8.90471542277993 -1.7867713252188968 0 0 0
6804 1 1 0 23.415857130959132 7.620650271752254 -1.5820704408544315 0 0 0
9602 1 2 0 24.891070785217032 8.017783410052022 -2.1312766985643736 0 0 0
6813 1 1 0 26.240681247329597 8.761348587563544 -1.6095503756260803 0 0 0
9613 1 2 0 27.583866277714783 8.072048729448374 -2.1665292331664703 0 0 0
6811 1 1 0 28.747245141797617 7.095697852346774 -1.6249441695831806 0 0 0
9614 1 2 0 30.211806125745035 7.628450335271516 -2.0429911858512724 0 0 0
6816 1 1 0 31.45956368969263 8.578666652824934 -1.6301326371621034 0 0 0
9621 1 2 0 32.785556914976574 7.7706454415509185 -2.149540447989964 0 0 0
6817 1 1 0 34.06703434004691 6.9251396281902355 -1.5910736098654683 0 0 0
9623 1 2 0 35.398546913245255 7.770903878297687 -1.90863928421866 0 0 0
6819 1 1 0 36.96347233865876 8.04358377061194 -1.5967560070160618 0 0 0
9628 1 2 0 37.963798349898205 6.868521836027944 -2.1616423201626507 0 0 0
9652 1 2 0 41.77211780372555 8.382871319645893 -2.1469700625087857 0 0 0
6835 1 1 0 42.00768615675936 6.859180502179547 -1.622456015125061 0 0 0
6841 1 1 0 46.300980825609734 8.499966869023533 -1.5891504886353034 0 0 0
9660 1 2 0 45.67918936257245 7.110877729322924 -2.1611683422899413 0 0 0
9663 1 2 0 47.90430034378383 8.448973670341442 -1.752792697763581 0 0 0
9669 1 2 0 50.391844612639844 8.17729401760462 -2.1176330703849864 0 0 0
6849 1 1 0 51.33431243288004 6.8784369118788815 -1.6362291382263148 0 0 0
9676 1 2 0 52.8821837219179 7.183219770084844 -2.0949349035135048 0 0 0
6856 1 1 0 54.36580151053984 7.679796505089771 -1.6297957805136905 0 0 0
9684 1 2 0 54.838614972223965 9.140067871977589 -2.1660973209303624 0 0 0
9688 1 2 0 55.65020921179782 6.803006541489858 -2.1239607972532477 0 0 0
9697 1 2 0 60.31913161886729 8.074999216763608 -2.1587246426379916 0 0 0
9704 1 2 0 64.7353419545109 8.578293992932219 -1.9007742315397111 0 0 0
6869 1 1 0 66.1062058842952 7.73070779048266 -1.5972651555925488 0 0 0
9709 1 2 0 67.25817235645373 8.838157818286495 -2.1146229428315757 0 0 0
9716 1 2 0 69.66497570849695 8.696850229848913 -2.080378339665915 0 0 0
6876 1 1 0 70.93871051903898 7.78708544856243 -1.6316880832503111 0 0 0
9718 1 2 0 72.23238167538835 8.65077200858238 -2.1131887616514398 0 0 0
9720 1 2 0 74.83630667109247 8.752217536297799 -1.9291089208183556 0 0 0
6879 1 1 0 75.7155615215406 7.416116824067629 -1.6144350257675522 0 0 0
9726 1 2 0 77.24373443603123 7.60602643492938 -2.127610017710282 0 0 0
6886 1 1 0 78.70712223716146 8.107921059470327 -1.6302826046551655 0 0 0
9738 1 2 0 79.86354950653852 7.02568321938322 -2.024357196497551 0 0 0
9742 1 2 0 82.44254094155387 7.394947479299335 -2.145854889505311 0 0 0
6888 1 1 0 83.46089279748007 8.556809920770789 -1.5985437134845453 0 0 0
9740 1 2 0 85.0236356710498 8.176552387987202 -1.8312613653180967 0 0 0
6889 1 1 0 86.52615535800217 8.740625040620788 -1.597020304021049 0 0 0
9744 1 2 0 87.70704977747683 7.7643183281670725 -2.1673979922317343 0 0 0
9752 1 2 0 90.34568549041535 7.098640733710252 -1.9446141178201057 0 0 0
6901 1 1 0 91.49910184114026 8.235994735568779 -1.6203270863379102 0 0 0
9763 1 2 0 93.05389299247862 8.097820232510838 -2.155885066112252 0 0 0
6905 1 1 0 94.59986191051374 7.898407994593651 -1.6064959271438968 0 0 0
9768 1 2 0 95.82967875768311 8.925821156765144 -2.077733835816069 0 0 0
6439 1 1 0 101.43092416433313 8.520240952498312 -1.601641186107638 0 0 0
9023 1 2 0 100.71390760117069 7.152435724142059 -2.1472709741680354 0 0 0
9183 1 2 0 9.258871989589263 9.82044420680243 -2.0640115315249252 0 0 0
6534 1 1 0 9.028760824128275 11.472581623004288 -1.6152896854359169 0 0 0
6571 1 1 0 14.519971561954153 10.018757609512077 -1.6205958932014406 0 0 0
9241 1 2 0 13.953876775053606 11.491573660592655 -2.1209377347855285 0 0 0
9244 1 2 0 16.08527625140938 9.84818689045829 -2.0479324354485335 0 0 0
6803 1 1 0 17.597562974698626 9.43306870954203 -1.6155971657592312 0 0 0
9600 1 2 0 18.50754576141433 10.692704150543797 -2.0817382469225767 0 0 0
6806 1 1 0 22.379033625465674 10.5083744256932 -1.5875632688459136 0 0 0
9603 1 2 0 21.041161488562793 11.192412502051987 -2.1661581697718884 0 0 0
9605 1 2 0 23.735461225724496 11.19526698430137 -2.1294320401688687 0 0 0
9617 1 2 0 26.176068547689066 10.359529895961542 -1.8548072566139429 0 0 0
9622 1 2 0 31.209281592053223 10.1138240132174 -2.1587282504290295 0 0 0
6820 1 1 0 36.52631853579501 11.099165561898156 -1.6216461524626982 0 0 0
9627 1 2 0 36.89285986481552 9.588695608247685 -2.1388521535495015 0 0 0
9654 1 2 0 40.46572238853851 10.955597233968184 -2.161126799180748 0 0 0
6836 1 1 0 41.58319041746054 9.904290633729572 -1.5978320333337264 0 0 0
9655 1 2 0 43.08568939345182 10.342551787646219 -1.9967630876715707 0 0 0
6842 1 1 0 44.512914516535524 10.987335806785138 -1.5935446647890579 0 0 0
9662 1 2 0 45.62286457901937 9.898967073985121 -2.096895510407716 0 0 0
9668 1 2 0 48.65868640231054 10.770666450196776 -2.1128465916681467 0 0 0
6845 1 1 0 49.27508873021851 9.301348348800767 -1.57587198399284 0 0 0
6854 1 1 0 55.553192972577214 10.493976583001416 -1.635367281991047 0 0 0
9685 1 2 0 57.1011904456029 10.743038082871486 -2.052272718547035 0 0 0
9691 1 2 0 59.76322654642179 10.659523444525693 -2.147755115571707 0 0 0
6858 1 1 0 58.47290036162442 11.50592989789556 -1.6323737169816082 0 0 0
6862 1 1 0 60.82092636377414 9.532366237346732 -1.6530765145702246 0 0 0
9698 1 2 0 62.34460849031937 9.788634551157283 -2.152386164929858 0 0 0
6866 1 1 0 63.87124808001511 9.932310203046526 -1.6054998277211976 0 0 0
9703 1 2 0 64.47856070399779 11.372010444034403 -2.0946219263528834 0 0 0
6873 1 1 0 68.54437122467195 9.806260761282592 -1.6214643405812015 0 0 0
9713 1 2 0 69.05216716754444 11.342168329628105 -2.113411076085551 0 0 0
6875 1 1 0 73.46853879423931 9.577064593050405 -1.6053806956307697 0 0 0
9719 1 2 0 73.46745935026533 11.123474836885176 -2.1523274299810304 0 0 0
6885 1 1 0 78.75209626105935 11.191829088166688 -1.5972223803087042 0 0 0
9735 1 2 0 78.86778406141732 9.65736492808183 -2.1487443856805926 0 0 0
9741 1 2 0 83.38485308865805 10.108508848986698 -2.1380733434621457 0 0 0
9743 1 2 0 86.65955056292655 10.316799825723493 -2.001207066065048 0 0 0
9748 1 2 0 88.97959748165358 11.461288953577316 -2.175190173650403 0 0 0
9762 1 2 0 90.98695864829791 9.698668579014422 -2.1249658405089757 0 0 0
6902 1 1 0 90.47818197973378 11.163115613803818 -1.6472960960633578 0 0 0
6906 1 1 0 96.67560740763186 10.30076577215102 -1.6323196422887376 0 0 0
9770 1 2 0 95.66749227394521 11.51472036473746 -2.063864687451382 0 0 0
9202 1 2 0 98.19139446326072 10.833668099088573 -2.1199730373999217 0 0 0
6544 1 1 0 99.75054087785368 11.172255355302145 -1.5892397290201021 0 0 0
9024 1 2 0 100.36606368553356 9.699118608428172 -1.9119069249072247 0 0 0
6533 1 1 0 6.134980049156167 12.944006506725026 -1.6177999249901351 0 0 0
9185 1 2 0 7.582876683408035 12.217532592686997 -2.0009347193208376 0 0 0
9187 1 2 0 9.963133004033512 12.796767454086039 -2.1065028607751297 0 0 0
9239 1 2 0 12.338992514266694 13.770751641230586 -1.992792316642522 0 0 0
6570 1 1 0 13.774779858400636 13.062591989468048 -1.6254899648971206 0 0 0
9604 1 2 0 19.357098183108047 13.276712290668106 -2.1759164752134077 0 0 0
6805 1 1 0 19.628839761180302 11.77154913541088 -1.6365894148021591 0 0 0
6824 1 1 0 25.201786492923684 11.625997259783786 -1.6042820258792723 0 0 0
9635 1 2 0 25.62006033241526 13.071723116855766 -2.186630564404238 0 0 0
9626 1 2 0 29.89538455652055 12.646856551113887 -2.044030640362538 0 0 0
6825 1 1 0 29.14811283043835 14.050163819144935 -1.6127644336504534 0 0 0
6818 1 1 0 31.150047489120567 11.667317731841514 -1.6210473691562075 0 0 0
9625 1 2 0 32.557871719349805 12.375114184953874 -2.0502378092369478 0 0 0
6821 1 1 0 34.03018186216439 12.934020712528355 -1.6251274691137265 0 0 0
9629 1 2 0 35.22102816898134 11.934231272442998 -2.1587884189688347 0 0 0
9630 1 2 0 37.88157068008528 11.88800118634382 -2.0114095874941134 0 0 0
6837 1 1 0 39.42932089155453 12.095065262586328 -1.6023067807994393 0 0 0
9656 1 2 0 39.77328141864306 13.62601017701031 -1.988871235991699 0 0 0
9664 1 2 0 44.09635194047378 12.464175209976428 -2.1542256419200854 0 0 0
6847 1 1 0 43.48034979903634 13.861066033824752 -1.5800290273002264 0 0 0
9670 1 2 0 47.2143641467004 13.598726216876825 -2.0962728419673704 0 0 0
6846 1 1 0 48.1915890646877 12.314106895922391 -1.5990759737680944 0 0 0
9671 1 2 0 49.722474618216836 12.737609028859382 -1.9887286164525266 0 0 0
6857 1 1 0 50.978479535493335 13.673909501986957 -1.62422833438521 0 0 0
9686 1 2 0 52.42864980926705 13.18195470503523 -2.1411297167993357 0 0 0
6855 1 1 0 53.954826491205544 13.059267172671815 -1.6164726384306125 0 0 0
9683 1 2 0 54.6926408930274 11.744664317293157 -2.175599953650046 0 0 0
9690 1 2 0 58.60145035282933 13.066784757448701 -2.087051991679997 0 0 0
6867 1 1 0 64.58259679695311 12.933092465061836 -1.6199509034441666 0 0 0
9705 1 2 0 63.42880222048088 13.944522116323718 -2.1716448616348916 0 0 0
9706 1 2 0 65.95272050493074 13.692974177626766 -2.02660687827558 0 0 0
6872 1 1 0 69.56249072472917 12.87544614080409 -1.6139768119612938 0 0 0
9714 1 2 0 68.42833944278148 13.960526789328828 -2.0772699530508727 0 0 0
9715 1 2 0 70.6984551757484 14.022923886057043 -2.1181917910919337 0 0 0
6877 1 1 0 73.75039666615102 12.65036334536169 -1.6287740560973039 0 0 0
9722 1 2 0 72.75640366693648 13.854762728896867 -2.057652491548771 0 0 0
9723 1 2 0 75.1837758667785 13.200610054188543 -2.140458003613037 0 0 0
6887 1 1 0 76.67857135190444 13.492019642151059 -1.6010135290929364 0 0 0
9736 1 2 0 77.39757848748677 12.050117328516722 -1.851060438518588 0 0 0
9737 1 2 0 79.77875504470234 12.31469268018879 -2.1626274309989353 0 0 0
6898 1 1 0 80.90097238668804 13.34804645099761 -1.6100403877628715 0 0 0
9746 1 2 0 82.16980817905423 12.461621563329146 -2.049410717547953 0 0 0
6890 1 1 0 83.49379676292652 11.655768070020377 -1.606558624151615 0 0 0
9745 1 2 0 84.50665481656151 12.822663482299552 -2.157180593023233 0 0 0
9747 1 2 0 86.84720927658024 13.123720881917862 -1.8819787341604926 0 0 0
6892 1 1 0 85.5054323564995 13.9982535793805 -1.5995979342671485 0 0 0
6891 1 1 0 87.4859612849266 11.66206738107447 -1.5961337877729609 0 0 0
9764 1 2 0 91.34918750117536 12.4194029992164 -2.1822121155247607 0 0 0
6907 1 1 0 92.10973835643884 13.749118237761346 -1.6478435551340604 0 0 0
9771 1 2 0 93.65150217469781 13.50582464419778 -2.1187524339746915 0 0 0
6908 1 1 0 95.08341631172338 12.94809440287437 -1.574757989218296 0 0 0
9200 1 2 0 100.9785823040835 12.190649227864975 -2.1119067068458577 0 0 0
9240 1 2 0 10.503684343879389 15.79188435312927 -2.0634230010814436 0 0 0
6569 1 1 0 10.790440389086328 14.181143735805845 -1.6069685339081625 0 0 0
9242 1 2 0 14.955257269282864 14.0935590307386 -2.1393174616091377 0 0 0
6610 1 1 0 15.976945361966068 15.267023436723544 -1.6025550570741929 0 0 0
9305 1 2 0 17.528238580316888 15.159677829620703 -2.104329829032659 0 0 0
6920 1 1 0 19.036614757323306 14.770753953510834 -1.6178717904565316 0 0 0
9791 1 2 0 20.23046216115438 15.812401277488023 -1.9973340924032321 0 0 0
9638 1 2 0 25.064367766053916 15.725252417730186 -2.148566462872304 0 0 0
6826 1 1 0 26.07924498930978 14.53493751356907 -1.6496837843598682 0 0 0
9636 1 2 0 27.64847859938465 14.48406402139917 -2.1178551074620797 0 0 0
9637 1 2 0 30.084128863983846 15.299421700994918 -2.058555131308431 0 0 0
9631 1 2 0 34.14002754242314 14.500581623245175 -2.0958425866478994 0 0 0
6927 1 1 0 33.8383150946728 16.036815462883997 -1.6197896203851339 0 0 0
9810 1 2 0 39.765148307121315 16.249869286306 -2.1609813085802796 0 0 0
6932 1 1 0 40.61171977339838 14.959951263121273 -1.6146361177100899 0 0 0
9673 1 2 0 42.118638920178846 14.576208035761223 -2.1291186992424387 0 0 0
9672 1 2 0 44.76798393207286 14.805487209152297 -1.7373735810335118 0 0 0
6848 1 1 0 46.396462361217516 14.971575576873526 -1.5629454964315597 0 0 0
9674 1 2 0 45.80552121198558 16.47536436742527 -2.1017304937390455 0 0 0
9689 1 2 0 50.657015237431615 15.153382801723806 -2.188676471903457 0 0 0
9687 1 2 0 54.84896382131544 14.360078080888874 -1.9721674706867645 0 0 0
6860 1 1 0 55.085784726570644 15.913389374552613 -1.608473517390519 0 0 0
6859 1 1 0 59.313473363204096 14.452557705003018 -1.6049364177635574 0 0 0
9692 1 2 0 58.7915926036489 15.905524873754112 -2.1117216725576182 0 0 0
9693 1 2 0 60.883878437983036 14.402303993258787 -1.9652500825917174 0 0 0
6868 1 1 0 62.3335408482477 15.007875182912064 -1.6053925054379556 0 0 0
6874 1 1 0 67.10374635257762 14.757957907678891 -1.6050420867432964 0 0 0
9717 1 2 0 66.89938757199896 16.290852186815943 -2.138197841741939 0 0 0
6878 1 1 0 71.85648540909095 15.153054574842983 -1.5878037376494127 0 0 0
9739 1 2 0 77.33796247247355 14.896344056181396 -2.1389293357032573 0 0 0
6941 1 1 0 77.73189261318949 16.396441543053292 -1.5915594582276478 0 0 0
9758 1 2 0 80.98081076479728 14.87930748373416 -2.1468118064781585 0 0 0
6944 1 1 0 80.83029416925571 16.408298404093365 -1.6025671267656487 0 0 0
9749 1 2 0 85.51681920390101 15.541207967092783 -2.1457771787477564 0 0 0
9772 1 2 0 91.39674015165131 15.142546851810911 -2.116695220940698 0 0 0
9773 1 2 0 96.18313514712182 14.1117837639964 -1.7955352709362484 0 0 0
6952 1 1 0 96.40962678453877 15.696648089326711 -1.5981751693819277 0 0 0
9840 1 2 0 95.09571368038442 16.505760260205026 -2.1225148501017017 0 0 0
9841 1 2 0 97.83840118856752 16.247988926725927 -2.1435229123578834 0 0 0
9237 1 2 0 6.279052954626512 17.268518913473173 -1.9978260131792558 0 0 0
6588 1 1 0 7.329795526733688 18.504003806371166 -1.61665638523344 0 0 0
6587 1 1 0 10.368036614892185 17.431555148068 -1.6437412424061733 0 0 0
9267 1 2 0 8.87368115985283 18.050056320961808 -2.074741987692223 0 0 0
9268 1 2 0 11.583346824200834 18.51399030626213 -2.1306295759123715 0 0 0
9304 1 2 0 15.475943110633812 16.791543458343995 -1.8897161081004537 0 0 0
6611 1 1 0 15.710458775873477 18.384975445157334 -1.599914437401322 0 0 0
9306 1 2 0 17.20494332520822 18.872085568329684 -2.1361460396961887 0 0 0
9849 1 2 0 19.985270051937086 18.377786418014544 -2.087036896458543 0 0 0
6958 1 1 0 21.022626579570048 17.188269913460356 -1.6110192421659744 0 0 0
9848 1 2 0 22.59142457216764 17.133777316624478 -2.1451378886323327 0 0 0
6959 1 1 0 24.1650578262556 17.009893925621572 -1.6376456251083855 0 0 0
9850 1 2 0 25.04703978174408 18.31490969369337 -2.087898864523633 0 0 0
9804 1 2 0 30.048535083698827 18.016372073389768 -2.174224755593662 0 0 0
6928 1 1 0 30.802537409131936 16.68084839995184 -1.6101323519383002 0 0 0
9802 1 2 0 32.35972905295183 16.56202004094198 -2.040943590002237 0 0 0
9803 1 2 0 34.8535000890442 17.181584272556222 -2.1761618079602014 0 0 0
6961 1 1 0 35.87800359135736 18.331397114808652 -1.6435014225780764 0 0 0
9852 1 2 0 37.34279178051122 17.769515231957023 -2.1027940398865277 0 0 0
6962 1 1 0 38.87608045442646 17.510531637369525 -1.610086979366672 0 0 0
9854 1 2 0 39.62224238590099 18.873322112271705 -2.0522856300910948 0 0 0
6965 1 1 0 44.90824454218503 17.83465723650874 -1.5919822508674197 0 0 0
9858 1 2 0 46.36917805821099 18.393512432826135 -2.050940092247046 0 0 0
6966 1 1 0 47.899618837978934 18.41532090312527 -1.6080432240548947 0 0 0
9813 1 2 0 48.82348728098677 17.158186808218193 -1.9710090098075337 0 0 0
6934 1 1 0 50.28151934225592 16.604057813269343 -1.597307780998367 0 0 0
9812 1 2 0 51.40698124049627 17.719213713316076 -1.9094267147427852 0 0 0
6935 1 1 0 52.950515339980846 18.065160005719314 -1.6098674923764087 0 0 0
9695 1 2 0 53.849496517380544 16.821064739159098 -2.0958966269309967 0 0 0
9694 1 2 0 56.430024843497364 16.62401014105476 -2.1634604293767645 0 0 0
6861 1 1 0 57.87085524602515 17.16378778113252 -1.6503343007142148 0 0 0
9696 1 2 0 58.2660870162746 18.65186710202384 -2.192852405752827 0 0 0
9707 1 2 0 62.488945282612846 16.573445538384412 -2.0308469601268486 0 0 0
6939 1 1 0 63.2521582405725 17.95067690548784 -1.6182342919738422 0 0 0
9820 1 2 0 64.77552140309055 17.811051483219426 -2.1378996815131406 0 0 0
6940 1 1 0 66.31377123705164 17.73549854780156 -1.6417242791610758 0 0 0
9724 1 2 0 72.57783371957365 16.59901076568418 -2.0808736668955703 0 0 0
6942 1 1 0 73.07582245646466 18.158562654458798 -1.654635564083321 0 0 0
9825 1 2 0 74.59373680451512 18.801064237636943 -2.0658377672742065 0 0 0
9823 1 2 0 76.81515386203488 17.657674450212344 -2.062218068197636 0 0 0
9824 1 2 0 79.27999598931213 16.813897723492467 -1.8535229285049428 0 0 0
9828 1 2 0 81.88258108567233 17.52447703856298 -2.1584892155047677 0 0 0
9835 1 2 0 84.48603431524765 18.075765457980907 -1.9930957270247789 0 0 0
6977 1 1 0 82.99202938579667 18.595079119920836 -1.6090657094747742 0 0 0
6948 1 1 0 85.72774034371527 17.085326778853666 -1.6249647856008549 0 0 0
9834 1 2 0 87.11485468164322 17.76267689203733 -2.165414390804146 0 0 0
6949 1 1 0 88.52374388913815 18.41839517706451 -1.6570305615557368 0 0 0
9832 1 2 0 89.78237488310356 17.485083623621176 -2.1480818765770557 0 0 0
6947 1 1 0 91.09435273789201 16.667633849214607 -1.6044652894175002 0 0 0
9833 1 2 0 92.470190802606 17.466942629433575 -1.9485766694737814 0 0 0
6953 1 1 0 94.04940058531749 17.642881730329883 -1.6127278541022296 0 0 0
6954 1 1 0 99.13115224743119 17.068803004642284 -1.5950808697295444 0 0 0
9843 1 2 0 98.92420746994854 18.653752960574682 -1.8602416520515883 0 0 0
9252 1 2 0 100.60723092723947 16.650157599610726 -2.1301475142777924 0 0 0
9269 1 2 0 6.798897205765965 20.027753954607814 -2.107288209342992 0 0 0
6609 1 1 0 12.796645625513724 19.58482232449587 -1.6239475044042397 0 0 0
9303 1 2 0 12.714252667762699 21.226429509014977 -1.936566100802105 0 0 0
9302 1 2 0 14.316390140347227 19.12211760001626 -2.0938673218728203 0 0 0
6988 1 1 0 18.72107959484114 19.338784492736647 -1.6436422351827877 0 0 0
9889 1 2 0 19.089015312854613 20.860289428721867 -2.130407826695896 0 0 0
6990 1 1 0 26.093675040683507 19.480263690555994 -1.6197097559747693 0 0 0
9892 1 2 0 25.610730180877855 20.94231258819827 -2.1672275172880915 0 0 0
9890 1 2 0 27.65233978226517 19.22296199581043 -2.0444494155159125 0 0 0
6989 1 1 0 29.233001417718594 19.32617925376084 -1.6286319465506445 0 0 0
9891 1 2 0 29.9615126591915 20.722148315656945 -2.080000154781254 0 0 0
9853 1 2 0 35.499122895387785 19.857507912499788 -2.126450957847011 0 0 0
6999 1 1 0 35.40219714451614 21.417774803088975 -1.6079643429528505 0 0 0
7003 1 1 0 40.250841523221325 20.28768390862042 -1.6034413032240231 0 0 0
9912 1 2 0 41.79797964775554 20.222605404194848 -2.0455760089432946 0 0 0
7004 1 1 0 43.32244188526029 20.572601834106575 -1.6047131130009054 0 0 0
9859 1 2 0 44.131929332625056 19.216444861090313 -2.1251152136541824 0 0 0
9860 1 2 0 48.57069581134001 19.74537975926836 -2.2005718427732095 0 0 0
7008 1 1 0 49.020110367508835 21.171089326984486 -1.6399491803217037 0 0 0
9814 1 2 0 53.53590787674587 19.45859906477898 -2.186367467447691 0 0 0
7007 1 1 0 54.07048453755425 20.86968870402272 -1.6008761383975967 0 0 0
9919 1 2 0 55.61156278805121 21.229728390213587 -1.842338739775023 0 0 0
6971 1 1 0 58.78677787357487 20.106057480157215 -1.6544399121251665 0 0 0
9868 1 2 0 57.96132999767509 21.430788685371596 -2.113352779163558 0 0 0
9867 1 2 0 60.29284207475778 20.38163237869475 -2.1619600945168815 0 0 0
6972 1 1 0 61.7873245658317 20.662741112917104 -1.61634432967867 0 0 0
9821 1 2 0 62.63823702032508 19.37086211493693 -2.1135098166647914 0 0 0
9822 1 2 0 66.94837064197549 19.142616905664447 -2.1667237951483016 0 0 0
6974 1 1 0 67.57864587042377 20.551663454724007 -1.619233391914618 0 0 0
9871 1 2 0 69.14917691325465 20.172862407099384 -1.9727058108570286 0 0 0
9826 1 2 0 71.85971075043226 19.18230571366395 -2.146475497311301 0 0 0
6975 1 1 0 70.7507378832179 20.28117404850427 -1.6088242559759 0 0 0
6943 1 1 0 76.21048195379116 19.120714133362558 -1.620055020311567 0 0 0
9827 1 2 0 77.41936231550676 20.23405803449123 -2.107691631630633 0 0 0
7014 1 1 0 78.69247067065508 21.267781348607485 -1.6363747236214923 0 0 0
9928 1 2 0 80.33233867169818 21.1868653244175 -2.0242272306041893 0 0 0
9875 1 2 0 82.71151419968379 20.145526645443443 -2.0326179929913097 0 0 0
9836 1 2 0 88.69330940145527 19.99001529904449 -2.103162482369787 0 0 0
7017 1 1 0 89.29819223588318 21.419250977103946 -1.5783407189484633 0 0 0
9933 1 2 0 90.90245339520347 21.45572436050866 -1.835241290192035 0 0 0
9931 1 2 0 93.49749182069195 21.431048536675267 -2.1767614498961767 0 0 0
9842 1 2 0 94.59438058150768 19.073710610646856 -2.1362512507580607 0 0 0
7016 1 1 0 94.77369049787865 20.601420556616215 -1.653215438418023 0 0 0
9932 1 2 0 96.09277308255608 21.36541526691136 -2.1798054214652334 0 0 0
9936 1 2 0 98.64052818100765 21.347760750444277 -2.0853110700795954 0 0 0
7019 1 1 0 99.5638521706948 20.113708503886503 -1.5941042033193042 0 0 0
9343 1 2 0 101.09025674186952 20.252808489223202 -2.1155932958509713 0 0 0
6628 1 1 0 6.239926863098194 21.544218382655263 -1.6303642235564628 0 0 0
9332 1 2 0 7.127485601298543 22.87690858583836 -2.1154576872678925 0 0 0
9336 1 2 0 12.157056013328518 23.949768300773805 -2.1164312510613725 0 0 0
6632 1 1 0 13.252711547818683 22.78037364510321 -1.6239642531070435 0 0 0
9338 1 2 0 14.832628640574505 23.09502602849865 -2.0918140196743953 0 0 0
9939 1 2 0 17.73524081834101 23.053173745662548 -2.0562779426740945 0 0 0
7061 1 1 0 16.295339214230957 23.760278575900127 -1.6309822137109078 0 0 0
7021 1 1 0 19.209824215610013 22.419909208420183 -1.6370127690984115 0 0 0
9938 1 2 0 20.656073714882606 23.100383567573942 -2.131298278944555 0 0 0
7023 1 1 0 22.19435400070677 23.478714288685882 -1.6089495279526402 0 0 0
9940 1 2 0 23.560030357671646 22.681198470847015 -2.084643480265337 0 0 0
7022 1 1 0 25.117788415669974 22.405818457994847 -1.6324056617970875 0 0 0
9941 1 2 0 26.245332063928885 23.550755924341644 -2.0003831837094035 0 0 0
9909 1 2 0 28.92145129524513 23.100005064016386 -2.0417667737590914 0 0 0
7000 1 1 0 30.256341076995696 22.266417825777793 -1.617742040953998 0 0 0
9908 1 2 0 31.632464529584077 22.99275997690724 -2.1558625202761115 0 0 0
9906 1 2 0 34.20224994321497 22.417351688371593 -2.12395632903103 0 0 0
7001 1 1 0 33.10154972440333 23.546740690661224 -1.648048336334065 0 0 0
9907 1 2 0 36.793093830283404 22.15703282517561 -2.0173420859136972 0 0 0
7030 1 1 0 38.2940717792431 22.640160967167 -1.628113360038886 0 0 0
9913 1 2 0 39.38396011024839 21.550816092471212 -2.156202888348065 0 0 0
7032 1 1 0 42.59919757574444 23.64018925669009 -1.6097301152424728 0 0 0
9914 1 2 0 43.15632491843276 22.15428361401892 -2.109743202024167 0 0 0
7033 1 1 0 47.6046231472553 23.82541532308365 -1.5696957129514446 0 0 0
9921 1 2 0 47.988717395413936 22.339705379424483 -2.037209913898118 0 0 0
9920 1 2 0 50.44141522727846 21.709663307374313 -2.1545538386266907 0 0 0
7009 1 1 0 51.63655815359303 22.61883053042721 -1.5886491600221957 0 0 0
9918 1 2 0 53.06442177450111 22.04368337249081 -2.0543568538426005 0 0 0
7010 1 1 0 56.7420145776127 22.363968341823256 -1.5828431932418412 0 0 0
9923 1 2 0 56.03281581353191 23.725341415403456 -2.1458977247281035 0 0 0
9869 1 2 0 62.312614442763305 22.12652077066731 -2.0801601141782973 0 0 0
7012 1 1 0 62.745359826744085 23.6395088963279 -1.6297689088022822 0 0 0
9925 1 2 0 64.34709177004288 23.598055860438908 -2.1084376292887725 0 0 0
9872 1 2 0 66.77468077918606 21.92448130631119 -2.1276739673509546 0 0 0
7013 1 1 0 65.89685635397208 23.249769187069173 -1.5991657138741702 0 0 0
9873 1 2 0 70.88708938731311 21.81411676878851 -2.1479004739205947 0 0 0
7043 1 1 0 70.65562701275786 23.338457980861524 -1.6393424002418833 0 0 0
9929 1 2 0 78.54278980254794 22.826143351783852 -2.157011406924146 0 0 0
7015 1 1 0 81.93363310451562 21.529076672957707 -1.6182936749496166 0 0 0
9930 1 2 0 82.93820251484357 22.790713472104137 -2.119113971221005 0 0 0
9934 1 2 0 88.99054941323999 22.93935561332193 -2.1090509013338146 0 0 0
7018 1 1 0 92.27183380183459 22.28379788666841 -1.582097658269784 0 0 0
9935 1 2 0 92.38690624195355 23.829414025030516 -2.058399823325339 0 0 0
7020 1 1 0 97.35481115091092 22.22206648253788 -1.6387419410620574 0 0 0
9937 1 2 0 97.36334476820043 23.757591322290878 -2.164901569572759 0 0 0
6630 1 1 0 7.835071039172039 24.30341816305981 -1.6094371319914067 0 0 0
9335 1 2 0 7.133081130070142 25.7205721885508 -2.124642816182674 0 0 0
9334 1 2 0 9.462318340045705 24.34913790575676 -1.9019272672160508 0 0 0
6631 1 1 0 10.956076496131342 25.001841956046466 -1.612393438352875 0 0 0
10001 1 2 0 16.548082609865766 25.308948208301057 -2.1285872621669926 0 0 0
9942 1 2 0 22.82805008558038 24.951681947916075 -1.9780884878574136 0 0 0
7062 1 1 0 27.73804833850717 24.1333668197409 -1.6126949745334027 0 0 0
10002 1 2 0 28.2086552045 25.616358710296073 -2.1502055751035987 0 0 0
9910 1 2 0 33.46336339426025 25.099021279968994 -2.0996199811036886 0 0 0
9953 1 2 0 38.50079116753269 24.16568643872377 -2.163041771271352 0 0 0
7063 1 1 0 38.48815031514981 25.68634433447179 -1.5819415338474923 0 0 0
9956 1 2 0 41.80847652832131 25.038176327226438 -2.117241123750373 0 0 0
9955 1 2 0 43.77246143078637 24.66289960573916 -2.1301993605308582 0 0 0
7034 1 1 0 45.072721511575004 25.430133289530907 -1.6030566460849869 0 0 0
9957 1 2 0 46.28658948332171 24.52601724876146 -2.1570462930271215 0 0 0
9958 1 2 0 48.79227853841824 24.905394639720857 -1.7538571543387265 0 0 0
9922 1 2 0 51.35504275611486 24.18448263371081 -1.7870641409085921 0 0 0
7072 1 1 0 52.03815759612411 25.64826661305501 -1.5511992824778398 0 0 0
9964 1 2 0 53.36902669710032 24.746105737815682 -1.8944593186292171 0 0 0
7037 1 1 0 54.97763886474289 24.836794311515884 -1.6006449920938675 0 0 0
9963 1 2 0 54.55565775594897 26.32750553041521 -2.1915071356355593 0 0 0
9965 1 2 0 58.671146434096066 25.921087156933268 -1.932666592717514 0 0 0
7038 1 1 0 60.31677830237719 25.710887922790246 -1.6277805078657337 0 0 0
9926 1 2 0 61.53341235829427 24.68054542294727 -2.151317968693842 0 0 0
9927 1 2 0 66.79416349348816 24.605437050531936 -1.8107702397863272 0 0 0