ITEM: TIMESTEP
2830
ITEM: NUMBER OF ATOMS
15420
ITEM: BOX BOUNDS pp pp pp
0.0000000000000000e+00 2.0261280666344393e+02
0.0000000000000000e+00 1.7697952311933881e+02
-1.0000000000000000e+02 1.0000000000000000e+02
ITEM: ATOMS id type element x y z v_uncoordination
1 1 Si 151.336 41.4139 1.61545 0
2 1 Si 152.05 38.1213 1.64072 0
3 1 Si 148.109 41.5962 1.62059 0
4 1 Si 150.291 35.2661 1.62819 0
5 1 Si 147.174 35.5155 1.64539 0
6 1 Si 146.68 38.7138 1.62116 0
7 1 Si 155.12 37.2599 1.62965 0
8 1 Si 157.767 39.1922 1.62497 0
9 1 Si 158.695 33.5408 1.60207 0
10 1 Si 155.53 34.0313 1.60897 0
11 1 Si 159.862 36.62 1.63082 0
12 1 Si 152.774 44.4637 1.63236 0
13 1 Si 156.01 45.0561 1.62897 0
14 1 Si 158.16 42.5817 1.6338 0
15 1 Si 151.049 47.3229 1.62544 0
16 1 Si 146.499 44.4452 1.64474 0
17 1 Si 147.757 47.4022 1.62451 0
18 1 Si 174.07 59.3805 1.63313 0
19 1 Si 171.321 57.4801 1.60975 0
20 1 Si 177.529 58.524 1.64295 0
21 1 Si 177.996 55.1843 1.63915 0
22 1 Si 175.152 53.4138 1.64443 0
23 1 Si 172.025 54.3784 1.62967 0
24 1 Si 172.239 62.1602 1.63747 0
25 1 Si 167.976 57.4864 1.63694 0
26 1 Si 166.35 60.2904 1.6277 0
27 1 Si 168.862 62.5077 1.61877 0
28 1 Si 180.547 60.4386 1.63743 0
29 1 Si 180.268 63.8902 1.62319 0
30 1 Si 174.088 64.815 1.6298 0
31 1 Si 177.309 65.2315 1.62367 0
32 1 Si 183.777 58.9584 1.6197 0
33 1 Si 181.065 53.6575 1.63181 0
34 1 Si 183.949 55.4923 1.62297 0
35 1 Si 186.864 60.6955 1.634 0
36 1 Si 187.322 64.0822 1.61278 0
37 1 Si 182.02 66.851 1.63609 0
38 1 Si 185.319 66.8257 1.63751 0
39 1 Si 157.455 48.0764 1.62927 0
40 1 Si 160.844 44.4973 1.61643 0
41 1 Si 160.714 47.7878 1.62541 0
42 1 Si 152.472 50.2441 1.61742 0
43 1 Si 155.7 50.8588 1.61685 0
44 1 Si 108.832 6.65593 1.61534 0
45 1 Si 105.583 7.33617 1.63303 0
46 1 Si 109.826 9.70623 1.61873 0
47 1 Si 104.978 10.6357 1.6185 0
48 1 Si 107.813 12.1944 1.62196 0
49 1 Si 103.371 4.8676 1.6306 0
50 1 Si 104.281 1.63574 1.6199 0
51 1 Si 100.048 5.33164 1.6129 0
52 1 Si 98.8391 2.23558 1.61681 0
53 1 Si 101.326 0.113281 1.62356 0
54 1 Si 111.219 4.2823 1.64009 0
55 1 Si 110.483 1.04394 1.63037 0
56 1 Si 107.227 176.895 1.62545 0
57 1 Si 114.503 5.10294 1.64032 0
58 1 Si 115.247 8.21053 1.62451 0
59 1 Si 112.881 10.261 1.61846 0
60 1 Si 117.301 3.36044 1.62212 0
61 1 Si 120.47 4.50094 1.62245 0
62 1 Si 120.616 7.76365 1.62858 0
63 1 Si 118.056 9.8179 1.62499 0
64 1 Si 116.474 0.204916 1.62571 0
65 1 Si 113.29 176.095 1.62958 0
66 1 Si 123.426 2.80313 1.64195 0
67 1 Si 126.697 7.3719 1.62991 0
68 1 Si 126.751 4.11497 1.63802 0
69 1 Si 123.693 8.60275 1.6307 0
70 1 Si 119.2 175.432 1.61675 0
71 1 Si 122.282 176.609 1.61837 0
72 1 Si 134.801 7.73984 1.60965 0
73 1 Si 138.034 8.07099 1.63586 0
74 1 Si 134.915 11.1633 1.63726 0
75 1 Si 140.316 10.3806 1.63473 0
76 1 Si 140.344 13.601 1.62207 0
77 1 Si 137.05 14.0632 1.64844 0
78 1 Si 133.144 4.69401 1.62863 0
79 1 Si 139.637 5.40826 1.62688 0
80 1 Si 138.527 2.50088 1.62935 0
81 1 Si 135.345 2.27225 1.61685 0
82 1 Si 129.125 9.58299 1.5979 0
83 1 Si 131.749 11.5918 1.63309 0
84 1 Si 130.106 3.10177 1.63705 0
85 1 Si 142.548 6.50624 1.61733 0
86 1 Si 143.411 9.53247 1.6011 0
87 1 Si 144.877 4.56187 1.6262 0
88 1 Si 143.941 1.55099 1.61938 0
89 1 Si 140.975 0.42365 1.62687 0
90 1 Si 148.983 2.9067 1.63243 0
91 1 Si 147.77 5.74945 1.62659 0
92 1 Si 146.889 0.559573 1.63367 0
93 1 Si 152.05 2.65576 1.62427 0
94 1 Si 149.13 8.60757 1.62741 0
95 1 Si 153.93 5.23666 1.60976 0
96 1 Si 152.477 8.42267 1.64445 0
97 1 Si 152.876 176.589 1.62012 0
98 1 Si 147.807 174.593 1.62309 0
99 1 Si 150.923 174.126 1.61029 0
100 1 Si 168.162 2.04032 1.6193 0
101 1 Si 171.447 2.35215 1.63473 0
102 1 Si 165.187 3.37756 1.62204 0
103 1 Si 172.089 5.51298 1.6315 0
104 1 Si 165.502 6.44727 1.63437 0
105 1 Si 168.876 6.63451 1.6342 0
106 1 Si 166.74 176.206 1.62057 0
107 1 Si 173.891 0.0459807 1.63132 0
108 1 Si 169.168 174.032 1.62267 0
109 1 Si 172.508 173.95 1.62184 0
110 1 Si 162.12 2.31076 1.61598 0
111 1 Si 163.421 176.273 1.64499 0
112 1 Si 177.91 4.18255 1.60771 0
113 1 Si 175.402 6.38119 1.63961 0
114 1 Si 177.203 0.922318 1.62308 0
115 1 Si 181.118 5.04178 1.63455 0
116 1 Si 182.084 8.10074 1.60908 0
117 1 Si 176.488 9.47594 1.61627 0
118 1 Si 178.379 12.2242 1.62007 0
119 1 Si 181.274 11.1499 1.63536 0
120 1 Si 183.731 2.97704 1.63708 0
121 1 Si 183.226 176.754 1.62705 0
122 1 Si 179.937 175.919 1.63704 0
123 1 Si 186.834 4.00685 1.60914 0
124 1 Si 187.463 7.10154 1.61818 0
125 1 Si 185.091 9.03283 1.62235 0
126 1 Si 190.033 3.54913 1.64218 0
127 1 Si 191.331 0.707205 1.62302 0
128 1 Si 189.315 175.191 1.62069 0
129 1 Si 186.025 174.846 1.64056 0
130 1 Si 192.231 5.92356 1.6077 0
131 1 Si 190.322 8.38911 1.63807 0
132 1 Si 194.582 0.605512 1.61918 0
133 1 Si 195.411 6.46272 1.62916 0
134 1 Si 196.555 3.31553 1.63408 0
135 1 Si 191.749 173.038 1.61977 0
136 1 Si 194.743 174.335 1.63707 0
137 1 Si 201.761 5.46845 1.58916 0
138 1 Si 2.29169 5.97294 1.61607 0
139 1 Si 202.195 8.61537 1.62648 0
140 1 Si 2.74496 9.10877 1.61375 0
141 1 Si 3.92423 3.35535 1.64449 0
142 1 Si 1.82158 0.867606 1.6169 0
143 1 Si 7.16311 3.4008 1.61245 0
144 1 Si 7.07818 0.182674 1.62643 0
145 1 Si 4.15547 175.736 1.63879 0
146 1 Si 199.774 2.89601 1.63156 0
147 1 Si 201.29 176.95 1.63277 0
148 1 Si 117.164 13.0048 1.61043 0
149 1 Si 114.013 13.1837 1.60563 0
150 1 Si 124.219 11.6308 1.6539 0
151 1 Si 117.634 16.268 1.6408 0
152 1 Si 122.958 14.3643 1.63469 0
153 1 Si 120.721 16.4572 1.65084 0
154 1 Si 127.265 12.0688 1.59549 0
155 1 Si 128.651 14.7934 1.59904 0
156 1 Si 131.714 14.844 1.62061 0
157 1 Si 146.495 10.5936 1.64169 0
158 1 Si 156.385 2.82784 1.639 0
159 1 Si 159.248 7.63791 1.62836 0
160 1 Si 159.318 4.24846 1.63731 0
161 1 Si 154.041 11.4347 1.61878 0
162 1 Si 157.305 10.5651 1.61945 0
163 1 Si 156.003 176.329 1.59516 0
164 1 Si 162.519 7.83439 1.59592 0
165 1 Si 168.594 9.69841 1.62171 0
166 1 Si 163.224 10.8639 1.61506 0
167 1 Si 166.174 11.6287 1.64816 0
168 1 Si 171.059 11.4788 1.62765 0
169 1 Si 174.106 11.3727 1.63304 0
170 1 Si 191.099 11.4412 1.63156 0
171 1 Si 185.896 12.0291 1.61725 0
172 1 Si 188.652 13.4679 1.62535 0
173 1 Si 196.427 9.72041 1.63445 0
174 1 Si 194.195 12.2479 1.6354 0
175 1 Si 199.661 10.5099 1.63042 0
176 1 Si 102.386 12.6332 1.63408 0
177 1 Si 98.0924 8.12527 1.65058 0
178 1 Si 99.2653 11.422 1.61774 0
179 1 Si 108.949 15.2311 1.61868 0
180 1 Si 107.986 18.3535 1.63397 0
181 1 Si 104.765 18.7619 1.63098 0
182 1 Si 102.824 15.9843 1.59755 0
183 1 Si 112.111 15.6548 1.62979 0
184 1 Si 146.539 13.7894 1.6225 0
185 1 Si 143.434 15.1078 1.62645 0
186 1 Si 149.415 15.5087 1.62472 0
187 1 Si 152.888 14.9007 1.64389 0
188 1 Si 158.476 13.5908 1.62939 0
189 1 Si 161.528 13.4176 1.63332 0
190 1 Si 165.579 14.6951 1.6506 0
191 1 Si 169.947 14.3347 1.63429 0
192 1 Si 167.901 16.6511 1.63098 0
193 1 Si 175.159 14.2124 1.57962 0
194 1 Si 179.586 15.3666 1.59039 0
195 1 Si 176.861 16.7265 1.64892 0
196 1 Si 183.232 13.6256 1.6055 0
197 1 Si 113.025 18.6694 1.60782 0
198 1 Si 116.154 19.241 1.63647 0
199 1 Si 125.743 15.7322 1.64103 0
200 1 Si 125.568 18.7306 1.6264 0
201 1 Si 122.461 19.0138 1.6119 0
202 1 Si 133.253 17.6343 1.61545 0
203 1 Si 136.529 17.4889 1.60519 0
204 1 Si 144.302 18.2591 1.6318 0
205 1 Si 147.718 18.3671 1.62424 0
206 1 Si 155.124 17.8072 1.64481 0
207 1 Si 158.191 16.8503 1.63288 0
208 1 Si 162.881 16.1882 1.59017 0
209 1 Si 172.562 15.8062 1.60235 0
210 1 Si 201.142 13.3195 1.61881 0
211 1 Si 199.648 16.0505 1.59482 0
212 1 Si 194.064 15.5398 1.63844 0
213 1 Si 196.775 17.1501 1.64245 0
214 1 Si 1.16239 15.0674 1.63138 0
215 1 Si 202.245 17.8169 1.6008 0
216 1 Si 4.31003 14.851 1.63427 0
217 1 Si 4.8837 11.578 1.63778 0
218 1 Si 110.44 20.5812 1.61158 0
219 1 Si 128.155 20.4439 1.60993 0
220 1 Si 131.359 20.2878 1.64677 0
221 1 Si 138.329 20.5316 1.63709 0
222 1 Si 142.013 20.8112 1.63131 0
223 1 Si 149.386 21.1902 1.62499 0
224 1 Si 155.482 21.3789 1.65389 0
225 1 Si 152.44 22.4724 1.62121 0
226 1 Si 160.982 18.6613 1.62872 0
227 1 Si 168.02 19.7509 1.63668 0
228 1 Si 173.057 18.7498 1.61287 0
229 1 Si 170.91 20.8517 1.62403 0
230 1 Si 183.567 16.7274 1.61484 0
231 1 Si 180.98 18.3909 1.62001 0
232 1 Si 188.615 16.676 1.62841 0
233 1 Si 186.088 18.6281 1.60967 0
234 1 Si 191.596 17.6954 1.61932 0
235 1 Si 103.426 21.8608 1.62379 0
236 1 Si 100.278 20.5165 1.63265 0
237 1 Si 99.8229 17.1684 1.59538 0
238 1 Si 116.951 22.4571 1.65264 0
239 1 Si 111.095 23.8238 1.62812 0
240 1 Si 114.448 24.6314 1.62975 0
241 1 Si 122.67 22.051 1.65381 0
242 1 Si 120.01 23.7505 1.61537 0
243 1 Si 125.819 22.6346 1.63266 0
244 1 Si 132.743 23.1921 1.62209 0
245 1 Si 136.146 23.3231 1.62369 0
246 1 Si 143.996 23.6273 1.63192 0
247 1 Si 147.296 23.6496 1.61951 0
248 1 Si 162.766 21.4656 1.61621 0
249 1 Si 161.171 24.2794 1.6199 0
250 1 Si 157.869 24.2089 1.64752 0
251 1 Si 166.068 22.1614 1.64275 0
252 1 Si 175.985 19.6122 1.60206 0
253 1 Si 191.535 20.9077 1.64665 0
254 1 Si 184.822 21.6498 1.6375 0
255 1 Si 189.696 23.5994 1.62701 0
256 1 Si 186.478 24.4568 1.63143 0
257 1 Si 197.177 20.2583 1.61316 0
258 1 Si 194.516 21.8326 1.6137 0
259 1 Si 0.0725493 20.9796 1.6557 0
260 1 Si 199.707 22.128 1.60616 0
261 1 Si 2.89497 22.6085 1.6211 0
262 1 Si 6.03072 17.7299 1.64061 0
263 1 Si 5.78379 21.0416 1.61551 0
264 1 Si 104.896 25.2859 1.65061 0
265 1 Si 108.483 26.0341 1.62297 0
266 1 Si 141.835 55.4738 1.6256 0
267 1 Si 140.319 52.3708 1.61939 0
268 1 Si 139.504 58.0719 1.62809 0
269 1 Si 136.991 51.768 1.6406 0
270 1 Si 134.956 54.3311 1.62812 0
271 1 Si 136.155 57.4924 1.62619 0
272 1 Si 145.478 55.7186 1.6167 0
273 1 Si 142.313 49.7137 1.63361 0
274 1 Si 145.696 50.0252 1.62471 0
275 1 Si 147.324 52.9138 1.62883 0
276 1 Si 148.03 58.1517 1.63628 0
277 1 Si 140.325 61.3841 1.64084 0
278 1 Si 146.7 61.1374 1.63166 0
279 1 Si 143.554 62.1313 1.60674 0
280 1 Si 127.079 25.4782 1.62744 0
281 1 Si 130.375 25.5631 1.64201 0
282 1 Si 136.971 26.5671 1.63464 0
283 1 Si 143.191 26.8373 1.64827 0
284 1 Si 140.063 27.7465 1.63512 0
285 1 Si 149.273 26.2332 1.61837 0
286 1 Si 152.418 25.7139 1.6136 0
287 1 Si 168.5 24.6655 1.64081 0
288 1 Si 163.355 26.7776 1.6182 0
289 1 Si 166.605 27.187 1.62212 0
290 1 Si 173.247 22.9597 1.6384 0
291 1 Si 171.937 25.7429 1.62051 0
292 1 Si 176.387 22.6136 1.64126 0
293 1 Si 181.552 21.5724 1.63552 0
294 1 Si 179.255 23.8863 1.61996 0
295 1 Si 102.591 27.9826 1.61372 0
296 1 Si 99.2847 27.8523 1.61998 0
297 1 Si 97.4763 22.2137 1.62507 0
298 1 Si 97.0985 25.4635 1.63447 0
299 1 Si 121.367 26.7352 1.62246 0
300 1 Si 115.805 27.6686 1.64695 0
301 1 Si 118.99 28.8706 1.62913 0
302 1 Si 124.578 27.5817 1.63478 0
303 1 Si 131.321 28.6051 1.63922 0
304 1 Si 134.556 28.8987 1.62823 0
305 1 Si 148.584 29.3445 1.65129 0
306 1 Si 145.412 29.3598 1.62763 0
307 1 Si 154.479 28.2401 1.64 0
308 1 Si 157.608 27.6153 1.63447 0
309 1 Si 194.786 24.9381 1.59002 0
310 1 Si 191.829 25.9993 1.64601 0
311 1 Si 197.928 24.7356 1.65819 0
312 1 Si 198.712 27.6956 1.62947 0
313 1 Si 201.391 29.2701 1.6195 0
314 1 Si 1.91001 28.7669 1.63115 0
315 1 Si 3.40177 25.8353 1.59947 0
316 1 Si 110.018 29.063 1.63712 0
317 1 Si 102.627 31.3607 1.63271 0
318 1 Si 108.292 31.8031 1.60911 0
319 1 Si 105.32 33.1191 1.63951 0
320 1 Si 113.334 29.7444 1.63886 0
321 1 Si 125.804 30.5633 1.62425 0
322 1 Si 129.057 31.0045 1.64224 0
323 1 Si 150.543 31.9833 1.61735 0
324 1 Si 153.682 31.388 1.62011 0
325 1 Si 162.762 29.9101 1.63369 0
326 1 Si 159.585 30.3645 1.65343 0
327 1 Si 168.065 30.1122 1.61997 0
328 1 Si 165.359 31.8823 1.6228 0
329 1 Si 175.211 27.3055 1.64339 0
330 1 Si 171.169 31.2489 1.62139 0
331 1 Si 174.234 30.3078 1.62436 0
332 1 Si 178.801 27.1099 1.60938 0
333 1 Si 185.14 27.6201 1.6259 0
334 1 Si 181.824 28.9489 1.63923 0
335 1 Si 190.94 29.0254 1.62299 0
336 1 Si 187.736 29.7486 1.62183 0
337 1 Si 120.47 31.8824 1.63276 0
338 1 Si 114.984 32.5419 1.6332 0
339 1 Si 117.961 33.8082 1.62431 0
340 1 Si 123.619 33.0154 1.6153 0
341 1 Si 135.101 32.0629 1.63237 0
342 1 Si 130.072 34.0647 1.61784 0
343 1 Si 133.221 34.6274 1.63592 0
344 1 Si 140.337 30.925 1.63937 0
345 1 Si 138.055 33.0223 1.63653 0
346 1 Si 142.572 33.1119 1.64111 0
347 1 Si 145.596 32.645 1.64161 0
348 1 Si 196.587 30.0023 1.60477 0
349 1 Si 193.533 30.9941 1.62343 0
350 1 Si 199.312 31.641 1.5991 0
351 1 Si 99.8941 33.2385 1.61926 0
352 1 Si 97.8376 30.7598 1.62057 0
353 1 Si 110.034 34.4511 1.61829 0
354 1 Si 108.389 37.0637 1.61741 0
355 1 Si 105.3 36.3591 1.61956 0
356 1 Si 113.106 35.0071 1.62821 0
357 1 Si 124.828 36.1492 1.63896 0
358 1 Si 128.127 36.6693 1.62843 0
359 1 Si 139.002 35.9985 1.63844 0
360 1 Si 142.059 36.1906 1.63563 0
361 1 Si 165.573 35.1044 1.63854 0
362 1 Si 163.025 37.1276 1.63048 0
363 1 Si 172.76 34.0509 1.6129 0
364 1 Si 168.315 36.8846 1.63015 0
365 1 Si 171.606 37.0033 1.63461 0
366 1 Si 175.833 33.0841 1.61254 0
367 1 Si 181.6 32.3797 1.63216 0
368 1 Si 178.886 34.3925 1.63987 0
369 1 Si 187.365 32.9297 1.62473 0
370 1 Si 184.383 34.1715 1.61286 0
371 1 Si 193.018 34.2019 1.62649 0
372 1 Si 189.822 35.0853 1.61961 0
373 1 Si 3.58547 31.5978 1.61719 0
374 1 Si 6.42058 29.7375 1.63186 0
375 1 Si 6.60207 26.3347 1.59814 0
376 1 Si 117.803 36.9898 1.62473 0
377 1 Si 114.742 37.6879 1.61828 0
378 1 Si 122.92 38.8431 1.64771 0
379 1 Si 119.666 39.5422 1.64439 0
380 1 Si 134.476 37.5711 1.62242 0
381 1 Si 137.424 38.6491 1.63285 0
382 1 Si 198.964 34.7415 1.6425 0
383 1 Si 195.856 35.8654 1.63641 0
384 1 Si 201.888 36.1282 1.61605 0
385 1 Si 2.41786 34.9214 1.62794 0
386 1 Si 110.1 39.6891 1.64952 0
387 1 Si 113.141 40.3229 1.62348 0
388 1 Si 129.977 39.3654 1.6307 0
389 1 Si 124.242 41.6833 1.62023 0
390 1 Si 129.575 42.4643 1.64618 0
391 1 Si 126.728 43.5766 1.63779 0
392 1 Si 133.073 40.3627 1.60872 0
393 1 Si 143.565 38.8925 1.62589 0
394 1 Si 138.941 41.3766 1.59386 0
395 1 Si 142.052 41.5728 1.61151 0
396 1 Si 167.346 39.8708 1.60166 0
397 1 Si 164.196 40.0838 1.60353 0
398 1 Si 173.604 39.6998 1.62011 0
399 1 Si 168.818 42.696 1.63595 0
400 1 Si 172.047 42.6202 1.62551 0
401 1 Si 179.292 37.7447 1.6204 0
402 1 Si 176.959 40.0507 1.62959 0
403 1 Si 184.831 37.4003 1.61399 0
404 1 Si 182.215 39.3621 1.61918 0
405 1 Si 188.089 37.8739 1.62989 0
406 1 Si 195.547 39.0409 1.62744 0
407 1 Si 189.503 40.793 1.63954 0
408 1 Si 192.785 40.7803 1.60235 0
409 1 Si 201.399 39.35 1.62048 0
410 1 Si 198.342 40.7046 1.61663 0
411 1 Si 4.2193 37.7882 1.61581 0
412 1 Si 7.7407 37.6232 1.64186 0
413 1 Si 9.17824 31.3994 1.61599 0
414 1 Si 9.63432 34.6557 1.61156 0
415 1 Si 103.592 39.0364 1.60748 0
416 1 Si 101.088 41.039 1.64342 0
417 1 Si 98.6795 36.3297 1.63665 0
418 1 Si 98.3039 39.6538 1.64445 0
419 1 Si 108.405 42.24 1.62967 0
420 1 Si 105.398 41.5643 1.61221 0
421 1 Si 117.644 42.2154 1.64058 0
422 1 Si 114.499 43.1774 1.60704 0
423 1 Si 122.378 44.1209 1.61341 0
424 1 Si 119.357 44.8071 1.64438 0
425 1 Si 135.411 42.683 1.56071 0
426 1 Si 138.578 44.4881 1.60143 0
427 1 Si 9.89081 5.29866 1.62749 0
428 1 Si 10.0984 8.59103 1.62292 0
429 1 Si 8.00611 11.0404 1.63968 0
430 1 Si 12.8596 3.74376 1.62003 0
431 1 Si 12.6983 0.320344 1.64124 0
432 1 Si 9.81652 175.489 1.63457 0
433 1 Si 15.6531 5.72098 1.62182 0
434 1 Si 15.9011 9.15174 1.61271 0
435 1 Si 12.8834 10.2661 1.61263 0
436 1 Si 18.547 4.05433 1.60676 0
437 1 Si 18.4178 0.567005 1.6271 0
438 1 Si 15.6154 175.688 1.61861 0
439 1 Si 21.104 6.37937 1.60979 0
440 1 Si 18.0197 11.9418 1.62803 0
441 1 Si 21.1335 10.5615 1.63769 0
442 1 Si 23.1179 3.27473 1.64404 0
443 1 Si 25.2686 0.239649 1.63889 0
444 1 Si 20.5996 175.028 1.60542 0
445 1 Si 23.789 174.293 1.62106 0
446 1 Si 26.9047 3.75995 1.58041 0
447 1 Si 24.6838 6.2173 1.58487 0
448 1 Si 28.456 6.40694 1.59042 0
449 1 Si 26.4845 8.78392 1.59724 0
450 1 Si 29.4339 2.12335 1.5918 0
451 1 Si 28.5543 176.165 1.58221 0
452 1 Si 32.2252 3.46178 1.63264 0
453 1 Si 31.5514 6.52662 1.62759 0
454 1 Si 1.91328 40.3839 1.62931 0
455 1 Si 33.8725 0.741105 1.63226 0
456 1 Si 31.7429 175.087 1.63291 0
457 1 Si 39.0577 4.25449 1.6322 0
458 1 Si 37.1753 1.09785 1.62869 0
459 1 Si 38.5683 8.11688 1.63441 0
460 1 Si 32.1249 9.63816 1.63862 0
461 1 Si 35.4474 10.433 1.6301 0
462 1 Si 42.3491 3.45249 1.61506 0
463 1 Si 44.4085 0.930047 1.62984 0
464 1 Si 44.3582 174.726 1.6374 0
465 1 Si 38.1154 174.774 1.62356 0
466 1 Si 41.2379 173.691 1.61023 0
467 1 Si 109.288 45.2414 1.635 0
468 1 Si 112.455 45.7584 1.64143 0
469 1 Si 44.8391 5.52381 1.63272 0
470 1 Si 44.7424 8.62985 1.62429 0
471 1 Si 41.6688 9.84244 1.60582 0
472 1 Si 47.8994 4.65991 1.59447 0
473 1 Si 47.5608 1.55205 1.60511 0
474 1 Si 51.0448 5.37784 1.63066 0
475 1 Si 51.0379 8.64651 1.64555 0
476 1 Si 47.824 9.87161 1.62172 0
477 1 Si 50.5044 0.414677 1.61075 0
478 1 Si 50.5269 174.176 1.61092 0
479 1 Si 47.3409 173.131 1.63859 0
480 1 Si 52.9022 2.61387 1.63124 0
481 1 Si 56.0654 1.44513 1.633 0
482 1 Si 56.3229 175.028 1.62355 0
483 1 Si 53.638 172.947 1.63402 0
484 1 Si 131.856 44.5672 1.56811 0
485 1 Si 134.921 45.8176 1.5826 0
486 1 Si 58.8967 3.32399 1.62461 0
487 1 Si 59.161 6.66299 1.6355 0
488 1 Si 54.0855 10.1634 1.62692 0
489 1 Si 57.1913 9.23325 1.62989 0
490 1 Si 61.8558 1.72505 1.6308 0
491 1 Si 62.1122 175.414 1.63169 0
492 1 Si 59.3259 173.542 1.62953 0
493 1 Si 64.7075 3.37968 1.63312 0
494 1 Si 64.7683 6.62081 1.62615 0
495 1 Si 62.0411 8.20344 1.6246 0
496 1 Si 67.7409 2.15167 1.62842 0
497 1 Si 68.1459 175.819 1.62441 0
498 1 Si 65.2416 174.175 1.61499 0
499 1 Si 143.322 44.4223 1.62356 0
500 1 Si 70.1712 4.39637 1.62876 0
501 1 Si 70.3427 7.65854 1.62973 0
502 1 Si 67.3166 8.58121 1.63671 0
503 1 Si 123.824 46.8393 1.62357 0
504 1 Si 126.87 46.7188 1.62794 0
505 1 Si 73.1701 3.41006 1.63024 0
506 1 Si 73.2733 0.181481 1.61147 0
507 1 Si 71.2665 174.578 1.62782 0
508 1 Si 75.5139 5.61782 1.63694 0
509 1 Si 75.8328 8.78723 1.62227 0
510 1 Si 72.8291 9.84724 1.64962 0
511 1 Si 78.575 1.85576 1.62538 0
512 1 Si 78.5709 4.9469 1.63 0
513 1 Si 76.3237 176.629 1.65014 0
514 1 Si 163.727 43.2053 1.63263 0
515 1 Si 81.2449 0.330756 1.61794 0
516 1 Si 85.5786 3.60969 1.62314 0
517 1 Si 83.9966 6.46259 1.61887 0
518 1 Si 84.2912 0.781811 1.63583 0
519 1 Si 80.8171 7.17395 1.62583 0
520 1 Si 80.2298 174.416 1.60774 0
521 1 Si 77.2441 173.666 1.60123 0
522 1 Si 166.466 44.9376 1.62434 0
523 1 Si 89.2032 7.83983 1.62053 0
524 1 Si 90.5795 4.80208 1.62492 0
525 1 Si 88.6109 2.33509 1.63678 0
526 1 Si 85.9414 9.08021 1.60833 0
527 1 Si 86.4471 175.483 1.61833 0
528 1 Si 85.4009 172.6 1.62213 0
529 1 Si 82.3423 172.284 1.63079 0
530 1 Si 178.711 42.9022 1.62299 0
531 1 Si 173.708 45.4282 1.62335 0
532 1 Si 176.992 45.6521 1.6254 0
533 1 Si 94.8271 7.26549 1.61664 0
534 1 Si 93.7978 4.10629 1.61192 0
535 1 Si 92.1617 9.30615 1.63044 0
536 1 Si 89.5208 176.164 1.60111 0
537 1 Si 182.059 42.7009 1.62473 0
538 1 Si 95.6582 1.23823 1.64489 0
539 1 Si 187.967 43.7765 1.61031 0
540 1 Si 184.712 45.0015 1.6385 0
541 1 Si 193.462 43.9122 1.59666 0
542 1 Si 190.674 45.703 1.62529 0
543 1 Si 196.723 43.5567 1.6389 0
544 1 Si 1.87577 43.7389 1.63533 0
545 1 Si 198.347 46.2578 1.64089 0
546 1 Si 201.67 45.7169 1.60945 0
547 1 Si 104.193 44.3751 1.62952 0
548 1 Si 101.105 44.2745 1.60167 0
549 1 Si 106.422 46.5928 1.64053 0
550 1 Si 118.724 47.8584 1.62234 0
551 1 Si 121.65 48.9762 1.61825 0
552 1 Si 78.933 9.84746 1.62317 0
553 1 Si 141.038 46.6587 1.61489 0
554 1 Si 132.22 48.04 1.59582 0
555 1 Si 135.258 48.9653 1.60246 0
556 1 Si 83.8778 11.9497 1.62811 0
557 1 Si 80.3234 12.8429 1.63418 0
558 1 Si 92.1218 12.59 1.63556 0
559 1 Si 85.9959 14.4098 1.64436 0
560 1 Si 89.3055 14.2577 1.60409 0
561 1 Si 97.8245 14.4488 1.63311 0
562 1 Si 94.5836 14.8071 1.62458 0
563 1 Si 12.5612 13.4109 1.60371 0
564 1 Si 9.44556 13.864 1.60256 0
565 1 Si 14.0341 16.2599 1.63968 0
566 1 Si 17.239 15.579 1.63808 0
567 1 Si 28.9166 10.8867 1.63636 0
568 1 Si 27.2541 13.7797 1.61156 0
569 1 Si 23.568 13.8887 1.62501 0
570 1 Si 4.89122 45.1902 1.6298 0
571 1 Si 9.40981 40.6217 1.63658 0
572 1 Si 7.88355 43.6776 1.6149 0
573 1 Si 43.3212 12.7552 1.63528 0
574 1 Si 35.3968 13.9149 1.62227 0
575 1 Si 38.2659 15.4773 1.60612 0
576 1 Si 41.4968 15.4246 1.64272 0
577 1 Si 113.109 48.9058 1.63399 0
578 1 Si 105.311 49.5407 1.63079 0
579 1 Si 107.695 51.6922 1.61355 0
580 1 Si 110.925 51.2839 1.62923 0
581 1 Si 46.7189 12.9077 1.62612 0
582 1 Si 116.22 49.7258 1.61915 0
583 1 Si 54.8848 13.3935 1.62069 0
584 1 Si 49.1904 15.1821 1.61904 0
585 1 Si 52.5123 15.5025 1.62475 0
586 1 Si 59.0456 11.9051 1.62652 0
587 1 Si 57.9361 14.8756 1.61946 0
588 1 Si 129.224 48.7304 1.63265 0
589 1 Si 62.1606 11.4239 1.62842 0
590 1 Si 67.2239 11.7161 1.62891 0
591 1 Si 64.604 13.5038 1.62635 0
592 1 Si 69.6092 13.7056 1.62894 0
593 1 Si 72.6606 13.07 1.61943 0
594 1 Si 166.354 48.2169 1.62728 0
595 1 Si 163.361 49.8948 1.62373 0
596 1 Si 172.499 48.4255 1.63532 0
597 1 Si 169.38 49.5976 1.64214 0
598 1 Si 178.192 48.7111 1.62473 0
599 1 Si 175.273 50.2135 1.61869 0
600 1 Si 184.319 48.5132 1.62924 0
601 1 Si 181.245 50.2154 1.63478 0
602 1 Si 190.318 48.9819 1.62323 0
603 1 Si 187.197 50.4416 1.6338 0
604 1 Si 196.332 48.9902 1.61973 0
605 1 Si 193.28 50.6026 1.62994 0
606 1 Si 201.688 48.9386 1.63115 0
607 1 Si 198.977 50.7708 1.63542 0
608 1 Si 29.5621 16.4025 1.62191 0
609 1 Si 33.0935 16.5472 1.64391 0
610 1 Si 1.95977 50.2115 1.63269 0
611 1 Si 4.7698 48.5234 1.62757 0
612 1 Si 102.051 49.9386 1.62775 0
613 1 Si 100.064 47.3094 1.64496 0
614 1 Si 122.928 51.7884 1.64683 0
615 1 Si 129.098 51.795 1.63129 0
616 1 Si 125.984 52.5207 1.61827 0
617 1 Si 117.343 52.7102 1.63234 0
618 1 Si 120.374 53.6095 1.63084 0
619 1 Si 65.4243 16.6429 1.64992 0
620 1 Si 68.6834 16.7104 1.60673 0
621 1 Si 77.9539 15.9887 1.62913 0
622 1 Si 74.4596 15.7946 1.61176 0
623 1 Si 131.76 53.6296 1.61264 0
624 1 Si 84.8155 17.4376 1.60462 0
625 1 Si 79.1683 19.3148 1.62359 0
626 1 Si 82.4218 19.6557 1.63888 0
627 1 Si 90.2627 17.3014 1.61288 0
628 1 Si 87.6101 18.9532 1.61429 0
629 1 Si 93.3947 17.8324 1.62587 0
630 1 Si 9.10908 16.9803 1.62236 0
631 1 Si 11.8246 18.7436 1.62343 0
632 1 Si 22.2856 17.3076 1.62157 0
633 1 Si 18.9802 18.6489 1.62276 0
634 1 Si 106.648 54.7858 1.6178 0
635 1 Si 103.313 55.3732 1.62392 0
636 1 Si 100.897 52.9991 1.62335 0
637 1 Si 27.8721 19.2803 1.61879 0
638 1 Si 24.5533 19.7361 1.63126 0
639 1 Si 112.12 54.2492 1.61686 0
640 1 Si 115.224 55.0374 1.63469 0
641 1 Si 37.804 18.6362 1.61689 0
642 1 Si 34.7648 19.5751 1.62743 0
643 1 Si 42.7575 18.4316 1.61043 0
644 1 Si 40.3232 20.5302 1.61434 0
645 1 Si 126.895 55.4607 1.62503 0
646 1 Si 129.922 56.1533 1.63286 0
647 1 Si 48.5377 18.3259 1.6124 0
648 1 Si 45.6752 19.7752 1.64349 0
649 1 Si 54.0521 18.4387 1.62476 0
650 1 Si 51.2921 20.026 1.62691 0
651 1 Si 59.6937 17.9061 1.62384 0
652 1 Si 57.0576 19.9744 1.63744 0
653 1 Si 63.1694 19.048 1.64224 0
654 1 Si 150.698 52.9737 1.61638 0
655 1 Si 71.764 17.842 1.64187 0
656 1 Si 163.09 53.3907 1.63229 0
657 1 Si 156.465 54.1161 1.62032 0
658 1 Si 159.881 55.4301 1.64524 0
659 1 Si 169.162 52.8084 1.61536 0
660 1 Si 166.367 54.5798 1.61436 0
661 1 Si 186.998 53.8695 1.63721 0
662 1 Si 29.1228 22.242 1.62531 0
663 1 Si 34.7397 23.0028 1.64074 0
664 1 Si 31.6754 24.13 1.62754 0
665 1 Si 192.92 53.9908 1.63933 0
666 1 Si 189.935 55.6473 1.64556 0
667 1 Si 198.511 53.9828 1.63008 0
668 1 Si 195.731 55.7832 1.62913 0
669 1 Si 1.2784 53.3959 1.6241 0
670 1 Si 201.328 55.4235 1.64065 0
671 1 Si 4.07818 54.7274 1.62721 0
672 1 Si 7.43678 50.4316 1.62372 0
673 1 Si 7.03503 53.6116 1.61724 0
674 1 Si 109.592 56.2581 1.62747 0
675 1 Si 121.52 56.49 1.63901 0
676 1 Si 124.51 57.3526 1.62965 0
677 1 Si 71.5664 21.0591 1.63981 0
678 1 Si 65.0006 22.0796 1.64471 0
679 1 Si 68.4918 22.4617 1.61355 0
680 1 Si 74.4506 22.7395 1.60704 0
681 1 Si 77.7817 22.5416 1.63077 0
682 1 Si 153.156 55.2562 1.62536 0
683 1 Si 86.9027 21.9745 1.62596 0
684 1 Si 83.7835 22.6244 1.61306 0
685 1 Si 94.4949 20.8528 1.63396 0
686 1 Si 89.2946 23.9432 1.61997 0
687 1 Si 92.381 23.2412 1.60168 0
688 1 Si 11.5107 22.1263 1.63771 0
689 1 Si 8.2539 23.3097 1.62301 0
690 1 Si 111.057 59.1206 1.61686 0
691 1 Si 116.54 57.9751 1.63724 0
692 1 Si 114.149 59.9593 1.61285 0
693 1 Si 17.4866 22.5347 1.62096 0
694 1 Si 14.3352 24.0429 1.62597 0
695 1 Si 110.069 62.122 1.62988 0
696 1 Si 106.953 62.5598 1.63448 0
697 1 Si 104.123 60.9734 1.61226 0
698 1 Si 102.034 58.4271 1.62796 0
699 1 Si 23.8335 22.9525 1.60423 0
700 1 Si 18.9819 25.6428 1.62748 0
701 1 Si 22.2215 25.8275 1.64042 0
702 1 Si 119.593 58.899 1.61347 0
703 1 Si 26.6887 24.2307 1.60144 0
704 1 Si 40.3624 23.7602 1.64962 0
705 1 Si 37.4144 25.1899 1.62669 0
706 1 Si 130.866 59.0985 1.62551 0
707 1 Si 133.923 60.0222 1.6208 0
708 1 Si 45.8514 22.9952 1.61704 0
709 1 Si 43.3648 25.0233 1.61066 0
710 1 Si 51.464 23.1966 1.64141 0
711 1 Si 48.6084 24.6075 1.62408 0
712 1 Si 151.625 58.2294 1.63378 0
713 1 Si 125.391 60.3355 1.6183 0
714 1 Si 128.463 61.1616 1.61419 0
715 1 Si 57.249 23.3607 1.62619 0
716 1 Si 54.247 24.8774 1.62026 0
717 1 Si 63.3078 25.0295 1.62871 0
718 1 Si 59.9595 25.4165 1.63584 0
719 1 Si 160.052 58.9555 1.63457 0
720 1 Si 162.945 60.7828 1.61444 0
721 1 Si 69.9415 25.3715 1.61806 0
722 1 Si 73.1486 25.6582 1.61419 0
723 1 Si 79.4457 25.6832 1.64331 0
724 1 Si 82.7815 25.7261 1.64755 0
725 1 Si 189.941 59.0879 1.62834 0
726 1 Si 195.862 59.1546 1.64819 0
727 1 Si 192.989 60.8112 1.62204 0
728 1 Si 201.203 58.6902 1.6411 0
729 1 Si 198.777 60.8361 1.62933 0
730 1 Si 1.48217 59.8777 1.6307 0
731 1 Si 3.80432 57.7933 1.60631 0
732 1 Si 122.212 60.7694 1.64745 0
733 1 Si 68.291 28.0735 1.65285 0
734 1 Si 65.0878 27.8929 1.62522 0
735 1 Si 133.107 63.2797 1.63856 0
736 1 Si 138.544 64.3594 1.61233 0
737 1 Si 135.338 65.7047 1.63286 0
738 1 Si 74.7325 28.4344 1.62402 0
739 1 Si 77.9382 28.7786 1.60468 0
740 1 Si 153.838 60.9388 1.62152 0
741 1 Si 148.795 63.6665 1.61516 0
742 1 Si 152.082 63.8341 1.62803 0
743 1 Si 85.2527 28.0465 1.62116 0
744 1 Si 88.2686 26.9428 1.58472 0
745 1 Si 157.341 61.1775 1.61971 0
746 1 Si 93.9203 26.0085 1.59003 0
747 1 Si 14.2623 27.5209 1.61319 0
748 1 Si 12.2135 30.2436 1.60845 0
749 1 Si 17.3641 28.6206 1.60573 0
750 1 Si 115.159 62.997 1.62997 0
751 1 Si 112.319 64.4625 1.63362 0
752 1 Si 121.496 63.7569 1.63633 0
753 1 Si 118.22 64.0808 1.63068 0
754 1 Si 26.9472 27.331 1.61591 0
755 1 Si 24.0123 28.6456 1.63419 0
756 1 Si 30.1547 27.0193 1.6426 0
757 1 Si 37.6287 28.5798 1.65113 0
758 1 Si 31.8649 29.6361 1.62161 0
759 1 Si 34.9359 30.3487 1.62337 0
760 1 Si 129.841 64.0515 1.60688 0
761 1 Si 124.274 65.5212 1.61735 0
762 1 Si 127.462 66.3652 1.65057 0
763 1 Si 45.0076 27.8313 1.63776 0
764 1 Si 40.1804 30.7275 1.62954 0
765 1 Si 43.4624 30.6113 1.63892 0
766 1 Si 143.818 65.3465 1.61056 0
767 1 Si 146.884 66.3148 1.62718 0
768 1 Si 48.2627 27.806 1.61515 0
769 1 Si 53.7308 28.1212 1.6331 0
770 1 Si 50.8876 29.7747 1.63647 0
771 1 Si 161.833 63.9155 1.62232 0
772 1 Si 158.521 64.353 1.61893 0
773 1 Si 59.193 28.6259 1.63087 0
774 1 Si 56.321 29.9879 1.63264 0
775 1 Si 73.0829 31.1304 1.61994 0
776 1 Si 69.9535 30.8085 1.64725 0
777 1 Si 167.3 65.336 1.60791 0
778 1 Si 164.143 66.2407 1.63121 0
779 1 Si 78.2646 32.1984 1.65031 0
780 1 Si 86.2404 31.2056 1.64046 0
781 1 Si 81.1335 33.4667 1.59256 0
782 1 Si 84.258 33.6204 1.64188 0
783 1 Si 91.3026 27.8421 1.64887 0
784 1 Si 91.7136 30.887 1.62355 0
785 1 Si 94.7788 31.5968 1.60921 0
786 1 Si 193.571 64.2083 1.62451 0
787 1 Si 190.407 65.3325 1.6185 0
788 1 Si 199.651 64.1513 1.6177 0
789 1 Si 196.82 66.0556 1.62958 0
790 1 Si 12.7187 33.4795 1.6169 0
791 1 Si 2.67951 62.816 1.62272 0
792 1 Si 0.397897 65.2362 1.63995 0
793 1 Si 5.88643 62.1214 1.65225 0
794 1 Si 6.68385 59.0212 1.59706 0
795 1 Si 107.217 65.7448 1.61429 0
796 1 Si 104.223 66.4141 1.62003 0
797 1 Si 102.639 63.7564 1.60569 0
798 1 Si 118.902 67.0954 1.63214 0
799 1 Si 121.992 67.6505 1.61983 0
800 1 Si 61.0073 31.2715 1.62556 0
801 1 Si 64.137 31.0158 1.63698 0
802 1 Si 140.883 66.6814 1.6221 0
803 1 Si 134.292 69.1051 1.62857 0
804 1 Si 140.367 69.8868 1.62711 0
805 1 Si 137.187 70.8336 1.61416 0
806 1 Si 73.5007 34.3119 1.63271 0
807 1 Si 76.5305 35.1745 1.63848 0
808 1 Si 153.305 66.966 1.63753 0
809 1 Si 148.014 69.3638 1.62031 0
810 1 Si 151.308 69.7159 1.62372 0
811 1 Si 89.1155 32.72 1.61836 0
812 1 Si 156.653 67.2761 1.63616 0
813 1 Si 169.217 67.9181 1.60721 0
814 1 Si 172.454 67.6399 1.63331 0
815 1 Si 17.9304 31.9983 1.62288 0
816 1 Si 15.7938 34.5319 1.61423 0
817 1 Si 23.4524 31.9139 1.63488 0
818 1 Si 20.7132 33.7165 1.61612 0
819 1 Si 1.98347 68.239 1.62716 0
820 1 Si 5.17493 68.7398 1.60209 0
821 1 Si 8.44131 64.0206 1.63448 0
822 1 Si 7.94932 67.1844 1.62494 0
823 1 Si 112.02 67.6556 1.61369 0
824 1 Si 117.222 69.7183 1.62177 0
825 1 Si 114.077 70.1206 1.62935 0
826 1 Si 31.164 32.6591 1.60792 0
827 1 Si 25.6371 34.2467 1.60444 0
828 1 Si 28.7448 34.5729 1.62741 0
829 1 Si 108.919 68.3825 1.61922 0
830 1 Si 34.2096 33.4594 1.60049 0
831 1 Si 40.0016 33.9464 1.60875 0
832 1 Si 35.3057 36.4727 1.65081 0
833 1 Si 38.433 36.7849 1.63879 0
834 1 Si 127.948 69.6705 1.62608 0
835 1 Si 131.002 70.9759 1.62426 0
836 1 Si 45.2645 33.321 1.60673 0
837 1 Si 42.8152 35.3003 1.60282 0
838 1 Si 51.0331 33.1124 1.62319 0
839 1 Si 48.1776 34.6999 1.63443 0
840 1 Si 56.5282 33.238 1.63082 0
841 1 Si 53.8234 34.9815 1.62993 0
842 1 Si 59.6159 34.2004 1.62617 0
843 1 Si 142.871 72.1 1.62594 0
844 1 Si 146.09 72.0207 1.63438 0
845 1 Si 68.8768 33.7874 1.61851 0
846 1 Si 65.7252 33.8715 1.63723 0
847 1 Si 163.832 69.546 1.62898 0
848 1 Si 167.099 70.3794 1.62133 0
849 1 Si 70.9486 36.2595 1.61554 0
850 1 Si 157.641 70.5769 1.63247 0
851 1 Si 160.925 71.404 1.62773 0
852 1 Si 81.522 36.5607 1.60189 0
853 1 Si 84.6479 36.7638 1.61382 0
854 1 Si 177.565 68.4024 1.61066 0
855 1 Si 174.74 69.8902 1.61502 0
856 1 Si 93.7096 34.5375 1.60591 0
857 1 Si 90.6949 35.4547 1.62056 0
858 1 Si 180.388 69.8772 1.62451 0
859 1 Si 95.623 36.902 1.62092 0