ITEM: TIMESTEP
2150
ITEM: NUMBER OF ATOMS
15360
ITEM: BOX BOUNDS pp pp pp
0.0000000000000000e+00 2.0383063519571576e+02
0.0000000000000000e+00 1.7518349215750098e+02
-1.0000000000000000e+02 1.0000000000000000e+02
ITEM: ATOMS id type element x y z v_uncoordination
1 1 Si 0.0623851 39.7154 1.62275 0
2 1 Si 203.06 36.5219 1.63597 0
3 1 Si 202.257 42.6436 1.62234 0
4 1 Si 199.883 35.4926 1.63809 0
5 1 Si 197.082 37.3056 1.63143 0
6 1 Si 196.774 40.6097 1.62081 0
7 1 Si 198.949 43.2015 1.62798 0
8 1 Si 3.31924 40.175 1.62078 0
9 1 Si 1.76253 34.3228 1.63164 0
10 1 Si 4.95563 34.7572 1.63112 0
11 1 Si 5.73963 37.8327 1.61786 0
12 1 Si 3.53664 43.4615 1.62226 0
13 1 Si 0.642312 45.1504 1.61484 0
14 1 Si 109.486 48.936 1.62302 0
15 1 Si 107.342 46.525 1.63336 0
16 1 Si 112.67 48.4876 1.61801 0
17 1 Si 108.68 43.6852 1.63446 0
18 1 Si 111.69 45.2762 1.63213 0
19 1 Si 107.825 51.5859 1.63074 0
20 1 Si 104.168 46.6331 1.61265 0
21 1 Si 104.664 51.7249 1.6269 0
22 1 Si 102.639 49.3942 1.60503 0
23 1 Si 115.253 50.7591 1.64687 0
24 1 Si 108.699 54.5808 1.6344 0
25 1 Si 111.669 55.7808 1.63046 0
26 1 Si 114.637 54.1884 1.64029 0
27 1 Si 109.113 3.01262 1.63162 0
28 1 Si 105.835 3.76305 1.62918 0
29 1 Si 111.853 5.12794 1.63931 0
30 1 Si 111.36 8.75504 1.62148 0
31 1 Si 105.059 9.464 1.61314 0
32 1 Si 103.694 6.25129 1.63266 0
33 1 Si 108.324 10.7279 1.63158 0
34 1 Si 109.144 174.809 1.63917 0
35 1 Si 104.09 1.06842 1.60545 0
36 1 Si 106.067 173.782 1.60296 0
37 1 Si 115.082 3.4598 1.63049 0
38 1 Si 116.537 175.132 1.6262 0
39 1 Si 111.354 172.289 1.62591 0
40 1 Si 114.712 172.214 1.62071 0
41 1 Si 117.551 5.738 1.63097 0
42 1 Si 117.266 9.12617 1.63656 0
43 1 Si 114.247 10.6692 1.62447 0
44 1 Si 120.596 4.48209 1.61584 0
45 1 Si 122.009 1.53184 1.62877 0
46 1 Si 119.964 174.129 1.62857 0
47 1 Si 123.193 6.38255 1.62056 0
48 1 Si 123.112 9.51754 1.61834 0
49 1 Si 120.171 10.8421 1.61616 0
50 1 Si 126.074 5.00832 1.61964 0
51 1 Si 125.313 1.86892 1.62057 0
52 1 Si 128.91 6.56925 1.62052 0
53 1 Si 128.847 9.87851 1.62494 0
54 1 Si 125.869 11.2721 1.63681 0
55 1 Si 131.668 4.69892 1.63305 0
56 1 Si 131.006 1.32248 1.61691 0
57 1 Si 127.955 175.164 1.62626 0
58 1 Si 134.56 6.53423 1.63753 0
59 1 Si 134.614 9.9723 1.62224 0
60 1 Si 131.673 11.5836 1.635 0
61 1 Si 137.567 5.01141 1.63097 0
62 1 Si 137.908 1.58651 1.61918 0
63 1 Si 132.809 173.692 1.63259 0
64 1 Si 136.14 173.862 1.63356 0
65 1 Si 140.277 7.11012 1.63946 0
66 1 Si 140.366 10.5813 1.63527 0
67 1 Si 137.389 11.9977 1.64012 0
68 1 Si 143.175 5.50836 1.6335 0
69 1 Si 143.636 2.19282 1.62776 0
70 1 Si 140.951 0.373513 1.62124 0
71 1 Si 148.69 5.93367 1.62138 0
72 1 Si 145.77 7.43538 1.62403 0
73 1 Si 150.142 8.98379 1.62778 0
74 1 Si 145.718 10.76 1.63159 0
75 1 Si 148.685 12.0588 1.62235 0
76 1 Si 149.298 2.47398 1.63366 0
77 1 Si 146.564 0.551946 1.62999 0
78 1 Si 154.691 5.82565 1.62157 0
79 1 Si 153.323 8.82149 1.63974 0
80 1 Si 154.827 2.53065 1.6382 0
81 1 Si 152.186 0.551488 1.6328 0
82 1 Si 157.687 6.66503 1.60069 0
83 1 Si 159.265 9.3373 1.62846 0
84 1 Si 154.838 11.7325 1.61162 0
85 1 Si 158.012 12.1305 1.62453 0
86 1 Si 159.716 4.29212 1.59855 0
87 1 Si 157.992 1.63813 1.63094 0
88 1 Si 162.479 5.76723 1.64009 0
89 1 Si 162.344 8.9353 1.62129 0
90 1 Si 165.199 4.273 1.62376 0
91 1 Si 165.453 1.08684 1.63168 0
92 1 Si 163.01 174.236 1.63647 0
93 1 Si 159.757 174.146 1.62683 0
94 1 Si 167.425 6.55389 1.63545 0
95 1 Si 167.346 9.69899 1.59376 0
96 1 Si 164.56 11.1328 1.62155 0
97 1 Si 170.124 5.11546 1.61839 0
98 1 Si 170.512 2.03245 1.62898 0
99 1 Si 168.389 174.957 1.61113 0
100 1 Si 172.848 6.55887 1.64977 0
101 1 Si 173.311 9.5582 1.60977 0
102 1 Si 168.735 12.5267 1.64089 0
103 1 Si 171.71 12.151 1.6157 0
104 1 Si 175.069 4.46547 1.61266 0
105 1 Si 173.573 1.74876 1.62108 0
106 1 Si 178.159 4.55367 1.61987 0
107 1 Si 179.311 7.72257 1.6243 0
108 1 Si 178.559 11.0416 1.62664 0
109 1 Si 175.571 11.6408 1.61849 0
110 1 Si 178.001 1.16556 1.64275 0
111 1 Si 175.276 174.356 1.59738 0
112 1 Si 184.302 4.91473 1.63819 0
113 1 Si 183.474 1.56189 1.61874 0
114 1 Si 182.508 7.79061 1.63112 0
115 1 Si 180.793 174.784 1.61669 0
116 1 Si 189.81 3.35638 1.65082 0
117 1 Si 192.985 4.64431 1.6241 0
118 1 Si 187.502 5.80516 1.64198 0
119 1 Si 193.57 7.87518 1.63456 0
120 1 Si 188.272 9.09437 1.6363 0
121 1 Si 191.313 10.2298 1.64479 0
122 1 Si 188.755 0.0430502 1.62851 0
123 1 Si 196.113 3.36924 1.62909 0
124 1 Si 196.003 0.207152 1.63194 0
125 1 Si 193.72 173.138 1.622 0
126 1 Si 190.555 172.433 1.633 0
127 1 Si 185.595 174.22 1.61611 0
128 1 Si 199.396 4.43434 1.63924 0
129 1 Si 199.615 7.62691 1.6182 0
130 1 Si 196.631 8.87693 1.61953 0
131 1 Si 198.972 174.225 1.62735 0
132 1 Si 202.508 3.09116 1.60833 0
133 1 Si 201.959 175.128 1.62579 0
134 1 Si 195.617 170.627 1.61897 0
135 1 Si 198.682 171.165 1.63836 0
136 1 Si 2.03688 3.18717 1.6229 0
137 1 Si 201.994 9.86386 1.6197 0
138 1 Si 4.09713 8.39044 1.62688 0
139 1 Si 4.73627 5.07774 1.63457 0
140 1 Si 1.38749 10.2957 1.63063 0
141 1 Si 3.12873 0.143718 1.60374 0
142 1 Si 0.709414 173.319 1.60916 0
143 1 Si 102.558 11.7433 1.62544 0
144 1 Si 98.0693 7.43556 1.62337 0
145 1 Si 100.327 5.07107 1.6349 0
146 1 Si 99.4293 10.5032 1.61406 0
147 1 Si 143.081 12.7416 1.64049 0
148 1 Si 183.258 11.0669 1.61925 0
149 1 Si 182.243 14.2692 1.63087 0
150 1 Si 179.076 14.4293 1.62973 0
151 1 Si 186.35 11.7406 1.62853 0
152 1 Si 197.26 11.9866 1.62654 0
153 1 Si 200.357 12.6399 1.61858 0
154 1 Si 6.3122 10.758 1.6006 0
155 1 Si 7.69497 3.29623 1.62226 0
156 1 Si 10.4964 4.85227 1.63065 0
157 1 Si 10.7266 8.05737 1.59803 0
158 1 Si 9.4266 10.9818 1.62768 0
159 1 Si 108.408 14.2341 1.62791 0
160 1 Si 105.946 16.6003 1.63694 0
161 1 Si 102.977 15.1093 1.63483 0
162 1 Si 114.179 14.0767 1.63858 0
163 1 Si 111.282 15.7702 1.63717 0
164 1 Si 121.677 13.7652 1.62604 0
165 1 Si 116.774 16.1793 1.63401 0
166 1 Si 120.03 16.4592 1.63707 0
167 1 Si 124.927 14.3424 1.6197 0
168 1 Si 131.648 14.8566 1.63095 0
169 1 Si 126.528 17.2613 1.62651 0
170 1 Si 129.718 17.5212 1.63081 0
171 1 Si 137.363 15.3905 1.62467 0
172 1 Si 134.385 16.353 1.62455 0
173 1 Si 143.624 16.2449 1.6125 0
174 1 Si 138.621 18.5608 1.64006 0
175 1 Si 141.849 19.1302 1.62204 0
176 1 Si 149.206 15.5012 1.64393 0
177 1 Si 146.649 17.6641 1.6061 0
178 1 Si 154.504 14.8955 1.63466 0
179 1 Si 152.181 17.0214 1.62619 0
180 1 Si 159.676 14.8232 1.60884 0
181 1 Si 157.165 16.6476 1.61369 0
182 1 Si 164.776 14.2831 1.61332 0
183 1 Si 162.444 16.359 1.63509 0
184 1 Si 167.695 15.5051 1.60062 0
185 1 Si 173.921 14.2653 1.61467 0
186 1 Si 191.947 13.4812 1.63357 0
187 1 Si 186.8 15.0219 1.62634 0
188 1 Si 189.848 16.0431 1.63085 0
189 1 Si 195.056 14.3042 1.63515 0
190 1 Si 184.171 17.0189 1.62786 0
191 1 Si 201.461 15.6458 1.64132 0
192 1 Si 196.202 17.2993 1.63341 0
193 1 Si 199.375 18.0099 1.63343 0
194 1 Si 2.24605 13.4582 1.62989 0
195 1 Si 0.758376 16.3054 1.64047 0
196 1 Si 5.36699 13.8169 1.62878 0
197 1 Si 111.087 19.0541 1.61757 0
198 1 Si 106.178 20.0443 1.62971 0
199 1 Si 109.066 21.6285 1.61511 0
200 1 Si 116.337 19.3465 1.62292 0
201 1 Si 113.641 20.8147 1.63007 0
202 1 Si 121.833 19.201 1.60663 0
203 1 Si 117.768 22.2114 1.62706 0
204 1 Si 120.841 22.247 1.61855 0
205 1 Si 124.924 20.1183 1.62655 0
206 1 Si 134.058 19.4534 1.61514 0
207 1 Si 131.129 20.4576 1.62861 0
208 1 Si 136.579 21.2399 1.59566 0
209 1 Si 146.76 21.0745 1.62813 0
210 1 Si 143.475 22.1994 1.62257 0
211 1 Si 154.127 19.7534 1.62463 0
212 1 Si 149.909 22.7927 1.62288 0
213 1 Si 153.548 22.8833 1.6384 0
214 1 Si 157.418 19.7754 1.63503 0
215 1 Si 162.991 19.5814 1.6349 0
216 1 Si 160.289 21.3883 1.62564 0
217 1 Si 168.466 18.6123 1.63886 0
218 1 Si 166.024 20.8534 1.63316 0
219 1 Si 174.171 17.3517 1.62592 0
220 1 Si 171.618 19.3677 1.62356 0
221 1 Si 177.416 17.3927 1.61537 0
222 1 Si 190.834 19.2073 1.6183 0
223 1 Si 194.04 19.6299 1.62808 0
224 1 Si 2.17231 19.2878 1.64093 0
225 1 Si 5.41442 19.5413 1.61405 0
226 1 Si 6.81729 16.6656 1.61719 0
227 1 Si 103.427 21.8398 1.61732 0
228 1 Si 100.303 17.0842 1.61813 0
229 1 Si 100.512 20.3587 1.61525 0
230 1 Si 183.833 20.5611 1.6443 0
231 1 Si 177.891 20.623 1.63041 0
232 1 Si 180.79 22.0992 1.62135 0
233 1 Si 189.522 22.2206 1.63729 0
234 1 Si 186.38 22.8668 1.62987 0
235 1 Si 200.784 20.9041 1.62793 0
236 1 Si 195.404 22.4733 1.61468 0
237 1 Si 198.504 23.0461 1.62205 0
238 1 Si 0.0936797 21.7798 1.62329 0
239 1 Si 110.617 24.65 1.64123 0
240 1 Si 110.31 27.9741 1.63109 0
241 1 Si 107.243 29.2426 1.62054 0
242 1 Si 104.37 27.8324 1.63273 0
243 1 Si 102.855 25.0105 1.61971 0
244 1 Si 113.725 23.9834 1.63094 0
245 1 Si 116.647 25.244 1.62006 0
246 1 Si 125.487 23.4271 1.64563 0
247 1 Si 122.617 24.9197 1.61922 0
248 1 Si 131.11 23.6731 1.62689 0
249 1 Si 128.185 25.3907 1.63521 0
250 1 Si 134.483 23.8671 1.63548 0
251 1 Si 142.303 25.7198 1.63379 0
252 1 Si 135.819 26.7874 1.63518 0
253 1 Si 139.183 27.1638 1.60455 0
254 1 Si 149.965 25.9556 1.63691 0
255 1 Si 144.401 28.4528 1.63163 0
256 1 Si 147.576 28.0882 1.63262 0
257 1 Si 156.936 24.7547 1.64546 0
258 1 Si 152.919 27.1918 1.63657 0
259 1 Si 156.09 27.8158 1.62662 0
260 1 Si 160.541 24.6847 1.60537 0
261 1 Si 166.602 24.1503 1.62598 0
262 1 Si 163.98 26.3844 1.62006 0
263 1 Si 172.185 22.5434 1.618 0
264 1 Si 169.883 24.9572 1.6368 0
265 1 Si 175.4 22.8002 1.63029 0
266 1 Si 194.201 25.407 1.62762 0
267 1 Si 191.056 25.1426 1.63227 0
268 1 Si 0.906676 24.9481 1.6392 0
269 1 Si 4.04994 25.9282 1.62404 0
270 1 Si 7.89284 21.7159 1.62594 0
271 1 Si 7.2382 24.9025 1.634 0
272 1 Si 179.633 25.2107 1.61645 0
273 1 Si 176.417 25.8244 1.61776 0
274 1 Si 186.657 26.2042 1.62726 0
275 1 Si 181.071 28.0394 1.62246 0
276 1 Si 184.235 28.2239 1.61673 0
277 1 Si 199.125 26.1296 1.6237 0
278 1 Si 196.372 27.771 1.62222 0
279 1 Si 202.171 27.0484 1.62509 0
280 1 Si 112.877 30.2545 1.62901 0
281 1 Si 111.191 33.0288 1.61846 0
282 1 Si 108.375 34.6949 1.626 0
283 1 Si 106.265 32.3621 1.62104 0
284 1 Si 118.364 28.1138 1.63182 0
285 1 Si 116.413 30.8072 1.64202 0
286 1 Si 121.805 28.1256 1.63396 0
287 1 Si 127.628 28.8034 1.61107 0
288 1 Si 124.5 30.3979 1.6295 0
289 1 Si 133.481 29.2469 1.60216 0
290 1 Si 130.368 30.732 1.63022 0
291 1 Si 138.933 30.3941 1.61664 0
292 1 Si 135.925 31.2592 1.62228 0
293 1 Si 144.005 31.838 1.6268 0
294 1 Si 141.006 32.8981 1.63652 0
295 1 Si 152.261 30.1566 1.6465 0
296 1 Si 149.248 30.7232 1.61026 0
297 1 Si 157.211 30.9038 1.62792 0
298 1 Si 154.387 32.3526 1.62202 0
299 1 Si 165.337 29.7931 1.63664 0
300 1 Si 159.77 32.906 1.62885 0
301 1 Si 163.116 32.461 1.62805 0
302 1 Si 171.147 28.0566 1.63644 0
303 1 Si 169.043 30.6723 1.62661 0
304 1 Si 174.508 28.505 1.62914 0
305 1 Si 189.478 27.9375 1.62144 0
306 1 Si 202.194 30.2918 1.62932 0
307 1 Si 1.50381 31.1264 1.65408 0
308 1 Si 4.11929 29.1132 1.63146 0
309 1 Si 149.074 33.795 1.61653 0
310 1 Si 146.016 34.5333 1.6458 0
311 1 Si 179.62 30.9522 1.62436 0
312 1 Si 176.356 31.3012 1.62313 0
313 1 Si 184.83 31.3316 1.60765 0
314 1 Si 182.124 32.9784 1.63487 0
315 1 Si 190.381 31.1797 1.65261 0
316 1 Si 187.589 32.9117 1.62873 0
317 1 Si 196.371 30.9852 1.62463 0
318 1 Si 193.47 32.6486 1.63429 0
319 1 Si 199.474 32.2216 1.63056 0
320 1 Si 112.922 35.5815 1.6287 0
321 1 Si 108.102 37.9843 1.62203 0
322 1 Si 111.23 38.2304 1.63314 0
323 1 Si 118.285 33.7704 1.63495 0
324 1 Si 116.009 35.9344 1.63723 0
325 1 Si 124.202 33.9779 1.62081 0
326 1 Si 121.223 35.6109 1.64652 0
327 1 Si 129.624 34.1169 1.63174 0
328 1 Si 126.861 36.199 1.61543 0
329 1 Si 135.276 34.2451 1.60525 0
330 1 Si 132.427 35.5651 1.59646 0
331 1 Si 140.539 36.1842 1.64221 0
332 1 Si 137.428 36.521 1.58336 0
333 1 Si 152.163 34.6358 1.6435 0
334 1 Si 152.952 37.6631 1.6207 0
335 1 Si 158.756 36.0793 1.63509 0
336 1 Si 156.139 38.1253 1.61894 0
337 1 Si 171.406 33.5462 1.62637 0
338 1 Si 164.128 35.6166 1.62316 0
339 1 Si 170.199 36.5786 1.63527 0
340 1 Si 166.978 37.2366 1.63465 0
341 1 Si 174.999 34.2785 1.63366 0
342 1 Si 103.138 32.9702 1.63344 0
343 1 Si 102.049 30.0188 1.61135 0
344 1 Si 145.648 37.7735 1.60697 0
345 1 Si 142.599 38.7782 1.59424 0
346 1 Si 150.935 40.203 1.61124 0
347 1 Si 147.696 40.3371 1.62861 0
348 1 Si 161.53 37.6114 1.63231 0
349 1 Si 177.484 37.2102 1.65263 0
350 1 Si 172.408 39.0623 1.60595 0
351 1 Si 175.577 39.8003 1.63502 0
352 1 Si 183.144 36.0117 1.62272 0
353 1 Si 181.017 38.4718 1.6345 0
354 1 Si 186.442 35.9567 1.63043 0
355 1 Si 194.029 35.9247 1.63038 0
356 1 Si 188.404 38.5551 1.62096 0
357 1 Si 191.752 38.3171 1.61534 0
358 1 Si 7.33728 29.5911 1.61555 0
359 1 Si 7.53232 32.7375 1.63036 0
360 1 Si 106.625 40.9467 1.64178 0
361 1 Si 103.228 41.1795 1.63398 0
362 1 Si 101.013 35.3204 1.63547 0
363 1 Si 101.082 38.6112 1.62041 0
364 1 Si 116.099 39.013 1.62478 0
365 1 Si 113.346 40.4617 1.6091 0
366 1 Si 121.219 39.0843 1.63526 0
367 1 Si 118.54 40.8802 1.62146 0
368 1 Si 126.499 39.9345 1.62898 0
369 1 Si 123.491 41.5017 1.6511 0
370 1 Si 134.586 37.7793 1.59714 0
371 1 Si 155.871 41.4045 1.62833 0
372 1 Si 152.877 42.834 1.6219 0
373 1 Si 161.274 40.8271 1.6299 0
374 1 Si 158.729 42.88 1.63241 0
375 1 Si 166.671 40.4439 1.61455 0
376 1 Si 164.088 42.2138 1.6217 0
377 1 Si 168.665 42.8992 1.63239 0
378 1 Si 171.662 42.1731 1.62441 0
379 1 Si 114.251 43.4533 1.63898 0
380 1 Si 134.714 40.779 1.58231 0
381 1 Si 128.599 42.6476 1.63127 0
382 1 Si 131.798 42.1169 1.58755 0
383 1 Si 143.113 42.0685 1.6297 0
384 1 Si 137.522 42.3609 1.57951 0
385 1 Si 140.454 43.8835 1.6412 0
386 1 Si 146.261 43.2876 1.6065 0
387 1 Si 8.41458 175.18 1.62598 0
388 1 Si 5.73955 173.499 1.62876 0
389 1 Si 13.3969 3.36649 1.61744 0
390 1 Si 15.3992 5.90537 1.6576 0
391 1 Si 13.7901 8.644 1.58745 0
392 1 Si 13.8103 0.092409 1.63225 0
393 1 Si 20.7851 3.93004 1.63717 0
394 1 Si 18.5483 6.20771 1.62664 0
395 1 Si 19.8267 0.925517 1.62397 0
396 1 Si 16.9796 174.508 1.63922 0
397 1 Si 11.1161 173.198 1.62923 0
398 1 Si 151.797 46.0773 1.63591 0
399 1 Si 148.232 46.1446 1.63451 0
400 1 Si 23.9671 4.59823 1.626 0
401 1 Si 24.6302 7.72363 1.63257 0
402 1 Si 19.4892 9.22113 1.63215 0
403 1 Si 22.5052 10.0512 1.63737 0
404 1 Si 26.5847 2.59016 1.62425 0
405 1 Si 25.7177 174.709 1.63444 0
406 1 Si 22.5131 174.363 1.61516 0
407 1 Si 29.706 3.58288 1.62952 0
408 1 Si 29.8112 6.83252 1.62368 0
409 1 Si 27.5418 9.02616 1.63489 0
410 1 Si 32.8185 2.43966 1.61538 0
411 1 Si 35.1794 175.162 1.63089 0
412 1 Si 27.6497 172.144 1.63829 0
413 1 Si 30.8591 171.581 1.60077 0
414 1 Si 34.1297 172.116 1.63157 0
415 1 Si 34.1484 5.35853 1.61256 0
416 1 Si 32.6683 8.18899 1.62109 0
417 1 Si 183.235 41.2995 1.63301 0
418 1 Si 176.45 42.9831 1.61209 0
419 1 Si 182.153 44.4272 1.62109 0
420 1 Si 178.963 45.0447 1.62182 0
421 1 Si 39.1845 3.284 1.61329 0
422 1 Si 37.2135 5.70842 1.63641 0
423 1 Si 38.5884 0.176494 1.6367 0
424 1 Si 186.699 41.4539 1.6182 0
425 1 Si 41.8888 4.89271 1.62226 0
426 1 Si 41.4955 8.02711 1.64859 0
427 1 Si 38.421 8.64382 1.6214 0
428 1 Si 193.507 41.1014 1.61516 0
429 1 Si 188.693 44.2532 1.62103 0
430 1 Si 192.114 44.0752 1.62888 0
431 1 Si 44.6645 3.49422 1.64057 0
432 1 Si 44.482 0.346145 1.62877 0
433 1 Si 41.6399 173.952 1.61742 0
434 1 Si 47.2746 5.31822 1.64294 0
435 1 Si 46.8145 8.58363 1.63597 0
436 1 Si 43.8686 10.1111 1.61908 0
437 1 Si 50.0615 3.60153 1.64546 0
438 1 Si 50.2747 0.302012 1.63656 0
439 1 Si 47.3388 174.044 1.62574 0
440 1 Si 52.7436 5.40566 1.6411 0
441 1 Si 52.4357 8.72078 1.64589 0
442 1 Si 49.5436 10.3008 1.64618 0
443 1 Si 55.5506 3.68381 1.63172 0
444 1 Si 56.066 0.338971 1.63341 0
445 1 Si 53.1888 173.787 1.63321 0
446 1 Si 57.9831 5.77904 1.62737 0
447 1 Si 57.8673 9.0143 1.62155 0
448 1 Si 55.1035 10.6087 1.63328 0
449 1 Si 61.0082 4.77753 1.61909 0
450 1 Si 61.5367 1.52623 1.61838 0
451 1 Si 59.2537 174.212 1.63335 0
452 1 Si 102.016 44.2889 1.60352 0
453 1 Si 62.4914 7.73685 1.63192 0
454 1 Si 60.7341 10.5477 1.61514 0
455 1 Si 65.6772 7.56883 1.63369 0
456 1 Si 66.0849 4.14787 1.63042 0
457 1 Si 64.7444 1.03022 1.61341 0
458 1 Si 117.441 43.9005 1.62037 0
459 1 Si 71.0639 6.47686 1.60882 0
460 1 Si 69.156 4.00068 1.60748 0
461 1 Si 70.6602 9.60018 1.62811 0
462 1 Si 67.4942 10.5224 1.62196 0
463 1 Si 73.2436 4.24705 1.6282 0
464 1 Si 71.3347 1.80905 1.6118 0
465 1 Si 77.82 7.20313 1.62227 0
466 1 Si 76.3123 4.42543 1.63715 0
467 1 Si 76.5787 10.1713 1.63029 0
468 1 Si 73.4291 11.3081 1.62291 0
469 1 Si 80.898 6.21334 1.63251 0
470 1 Si 81.3262 3.10802 1.61138 0
471 1 Si 78.3425 2.0632 1.58208 0
472 1 Si 122.596 44.9321 1.6283 0
473 1 Si 119.509 46.388 1.6292 0
474 1 Si 83.6507 7.78772 1.59835 0
475 1 Si 82.3773 10.7645 1.60012 0
476 1 Si 79.3155 11.9614 1.63913 0
477 1 Si 86.9267 7.25375 1.63829 0
478 1 Si 88.7218 4.36675 1.62369 0
479 1 Si 86.9959 1.33715 1.62116 0
480 1 Si 83.7738 1.04701 1.63775 0
481 1 Si 127.668 45.9181 1.60703 0
482 1 Si 124.723 47.4843 1.62273 0
483 1 Si 88.0881 10.3068 1.62836 0
484 1 Si 85.3029 12.0051 1.62925 0
485 1 Si 92.2003 4.36726 1.63032 0
486 1 Si 92.9605 1.03928 1.62965 0
487 1 Si 87.9838 173.205 1.62503 0
488 1 Si 91.1813 173.362 1.61684 0
489 1 Si 134.584 43.5772 1.60748 0
490 1 Si 94.6715 7.08757 1.62414 0
491 1 Si 94.1302 10.4045 1.62072 0
492 1 Si 91.1013 11.6622 1.65842 0
493 1 Si 98.7123 1.97645 1.61579 0
494 1 Si 95.9851 175.078 1.63474 0
495 1 Si 135.114 46.5163 1.62972 0
496 1 Si 140.913 47.1859 1.59402 0
497 1 Si 137.901 47.7957 1.62507 0
498 1 Si 96.8012 12.4766 1.62653 0
499 1 Si 101.128 175.12 1.63205 0
500 1 Si 159.295 46.1014 1.61284 0
501 1 Si 154.226 48.9095 1.62844 0
502 1 Si 157.538 48.8321 1.62516 0
503 1 Si 13.0898 11.7432 1.57265 0
504 1 Si 10.7846 13.9412 1.60241 0
505 1 Si 164.753 45.3379 1.63301 0
506 1 Si 162.301 47.2941 1.6159 0
507 1 Si 17.6995 11.7194 1.57801 0
508 1 Si 15.3402 13.7414 1.59629 0
509 1 Si 167.853 45.9997 1.622 0
510 1 Si 173.694 44.607 1.60872 0
511 1 Si 28.2672 12.1975 1.61726 0
512 1 Si 33.7077 11.2834 1.64749 0
513 1 Si 31.2283 13.5079 1.60623 0
514 1 Si 132.59 48.2732 1.62468 0
515 1 Si 129.514 48.5262 1.63271 0
516 1 Si 23.1622 13.1244 1.64026 0
517 1 Si 18.3829 14.7421 1.61058 0
518 1 Si 21.2844 15.642 1.61254 0
519 1 Si 146.676 49.1525 1.62041 0
520 1 Si 141.327 50.5183 1.63172 0
521 1 Si 144.312 51.6153 1.63345 0
522 1 Si 25.9754 14.4166 1.62253 0
523 1 Si 37.0167 11.5397 1.61663 0
524 1 Si 187.251 47.3625 1.62517 0
525 1 Si 183.844 47.3155 1.62523 0
526 1 Si 42.8623 13.3033 1.61769 0
527 1 Si 39.239 14.0612 1.62169 0
528 1 Si 178.613 48.307 1.62121 0
529 1 Si 173.142 47.7796 1.63089 0
530 1 Si 175.72 49.8179 1.62868 0
531 1 Si 49.1695 13.5482 1.63332 0
532 1 Si 45.9828 14.7696 1.62459 0
533 1 Si 194.316 46.7234 1.63236 0
534 1 Si 189.305 50.178 1.62874 0
535 1 Si 192.826 49.7579 1.62617 0
536 1 Si 181.553 49.7852 1.63445 0
537 1 Si 197.817 46.4544 1.62387 0
538 1 Si 55.1466 13.9014 1.63879 0
539 1 Si 52.1048 15.2005 1.64459 0
540 1 Si 6.67597 44.359 1.63926 0
541 1 Si 8.93052 36.7077 1.62895 0
542 1 Si 10.5924 39.3796 1.63989 0
543 1 Si 9.33896 42.4044 1.6156 0
544 1 Si 60.9717 13.9474 1.64001 0
545 1 Si 58.0231 15.691 1.64432 0
546 1 Si 118.53 49.7018 1.61527 0
547 1 Si 66.9169 13.9615 1.64134 0
548 1 Si 63.9331 15.6832 1.63581 0
549 1 Si 124.019 50.9542 1.64456 0
550 1 Si 120.889 52.1931 1.6209 0
551 1 Si 72.6576 14.4938 1.62574 0
552 1 Si 69.6693 15.9552 1.63635 0
553 1 Si 137.013 50.7006 1.63175 0
554 1 Si 133.987 50.9834 1.61457 0
555 1 Si 78.3699 15.0258 1.61667 0
556 1 Si 75.3634 16.1743 1.63215 0
557 1 Si 148.576 51.6207 1.59947 0
558 1 Si 151.286 53.0904 1.63216 0
559 1 Si 154.295 52.407 1.62114 0
560 1 Si 84.9629 15.106 1.61377 0
561 1 Si 80.0097 17.7487 1.62701 0
562 1 Si 83.1241 17.6757 1.64679 0
563 1 Si 162.809 50.4715 1.62926 0
564 1 Si 159.663 51.4147 1.61757 0
565 1 Si 90.79 14.8355 1.6175 0
566 1 Si 87.915 16.0041 1.59982 0
567 1 Si 169.938 48.5062 1.62911 0
568 1 Si 169.162 51.6673 1.627 0
569 1 Si 165.739 52.1012 1.63014 0
570 1 Si 97.2358 15.8625 1.61981 0
571 1 Si 92.2116 17.6541 1.65097 0
572 1 Si 95.1938 18.5736 1.62303 0
573 1 Si 16.0063 16.7564 1.59352 0
574 1 Si 25.2272 17.5916 1.62398 0
575 1 Si 30.8458 16.844 1.62979 0
576 1 Si 28.101 18.9875 1.6355 0
577 1 Si 200.175 49.1416 1.63112 0
578 1 Si 203.755 48.5312 1.6343 0
579 1 Si 9.99601 17.1065 1.62459 0
580 1 Si 128.926 51.6643 1.62456 0
581 1 Si 126.326 53.4822 1.62922 0
582 1 Si 22.1115 18.6926 1.62759 0
583 1 Si 139.04 53.0034 1.58252 0
584 1 Si 131.72 53.0563 1.62249 0
585 1 Si 147.589 54.5798 1.61163 0
586 1 Si 144.541 55.0313 1.61986 0
587 1 Si 37.0886 16.7878 1.63639 0
588 1 Si 33.8873 17.9681 1.61627 0
589 1 Si 46.3343 17.9493 1.62954 0
590 1 Si 38.2497 19.7207 1.62682 0
591 1 Si 41.0932 20.9711 1.626 0
592 1 Si 44.1216 20.1985 1.62144 0
593 1 Si 175.432 53.144 1.62021 0
594 1 Si 171.957 53.8368 1.6338 0
595 1 Si 181.664 53.1829 1.63213 0
596 1 Si 178.559 54.8985 1.63282 0
597 1 Si 52.1764 18.4469 1.6244 0
598 1 Si 49.1665 19.4834 1.63031 0
599 1 Si 188.063 53.4395 1.63393 0
600 1 Si 184.809 54.7214 1.6315 0
601 1 Si 195.193 52.2989 1.62268 0
602 1 Si 193.817 55.2697 1.63054 0
603 1 Si 190.553 55.7384 1.6112 0
604 1 Si 57.9129 19.1376 1.65469 0
605 1 Si 54.7309 20.5669 1.62831 0
606 1 Si 198.698 52.3241 1.62536 0
607 1 Si 63.9181 19.1776 1.62984 0
608 1 Si 60.9696 20.8703 1.625 0
609 1 Si 2.72179 50.8573 1.63355 0
610 1 Si 7.60487 47.4705 1.62121 0
611 1 Si 6.10974 50.3248 1.62897 0
612 1 Si 69.6207 19.3559 1.62483 0
613 1 Si 66.8095 21.1812 1.62436 0
614 1 Si 105.864 56.0869 1.62254 0
615 1 Si 110.945 58.9937 1.6277 0
616 1 Si 105.171 59.1583 1.63425 0
617 1 Si 108.033 60.4682 1.62673 0
618 1 Si 75.2088 19.3567 1.63394 0
619 1 Si 72.48 21.1084 1.62936 0
620 1 Si 120.217 55.6357 1.64248 0
621 1 Si 117.024 56.5634 1.63525 0
622 1 Si 78.2263 20.3842 1.61486 0
623 1 Si 127.348 56.7949 1.63 0
624 1 Si 122.137 58.5023 1.62263 0
625 1 Si 125.325 59.4001 1.63539 0
626 1 Si 87.5288 19.0167 1.62216 0
627 1 Si 84.7585 20.3657 1.57868 0
628 1 Si 133.175 55.7693 1.62591 0
629 1 Si 136.521 55.2546 1.64386 0
630 1 Si 90.3359 20.159 1.61955 0
631 1 Si 150.313 56.0725 1.62932 0
632 1 Si 95.0232 22.0363 1.62956 0
633 1 Si 98.1917 22.6802 1.6264 0
634 1 Si 165.024 55.2194 1.62369 0
635 1 Si 159.149 54.6475 1.63442 0
636 1 Si 161.95 56.3909 1.6254 0
637 1 Si 170.954 57.0138 1.6322 0
638 1 Si 167.629 57.0982 1.61488 0
639 1 Si 16.5494 19.8241 1.62543 0
640 1 Si 10.9075 20.3186 1.62897 0
641 1 Si 13.9879 21.7777 1.61795 0
642 1 Si 19.6106 20.9372 1.62397 0
643 1 Si 33.2041 21.1663 1.62943 0
644 1 Si 36.1752 22.1622 1.6261 0
645 1 Si 200.422 55.4265 1.62703 0
646 1 Si 195.539 58.0696 1.61628 0
647 1 Si 198.8 58.4054 1.63659 0
648 1 Si 48.5377 22.5543 1.64511 0
649 1 Si 53.529 23.81 1.63376 0
650 1 Si 50.3336 25.1016 1.63659 0
651 1 Si 103.166 54.4754 1.62056 0
652 1 Si 86.5336 22.9921 1.65235 0
653 1 Si 78.5949 23.5194 1.63875 0
654 1 Si 81.2644 25.2142 1.60759 0
655 1 Si 84.4293 25.2822 1.62436 0
656 1 Si 89.7305 23.1726 1.61093 0
657 1 Si 203.705 56.0882 1.6526 0
658 1 Si 2.50962 54.1882 1.64439 0
659 1 Si 116.337 59.8751 1.63902 0
660 1 Si 113.379 61.0855 1.63395 0
661 1 Si 130.569 57.7954 1.615 0
662 1 Si 27.4286 22.2867 1.61053 0
663 1 Si 19.025 24.256 1.63257 0
664 1 Si 25.2232 24.94 1.62642 0
665 1 Si 21.9866 26.3231 1.62717 0
666 1 Si 30.5966 23.0515 1.62788 0
667 1 Si 143.927 58.343 1.64834 0
668 1 Si 137.816 58.1123 1.62588 0
669 1 Si 140.796 59.3654 1.6094 0
670 1 Si 37.4819 25.0598 1.65189 0
671 1 Si 40.4778 24.0907 1.61833 0
672 1 Si 155.974 55.5041 1.63345 0
673 1 Si 151.596 59.0114 1.62701 0
674 1 Si 146.072 60.96 1.62577 0
675 1 Si 149.358 61.4454 1.62874 0
676 1 Si 45.4829 23.0305 1.60542 0
677 1 Si 172.738 59.9536 1.63787 0
678 1 Si 165.611 59.6017 1.62331 0
679 1 Si 170.536 62.5132 1.6248 0
680 1 Si 167.313 62.2074 1.62891 0
681 1 Si 184.693 58.0771 1.62119 0
682 1 Si 178.761 58.3516 1.62956 0
683 1 Si 181.86 59.6697 1.62187 0
684 1 Si 61.5454 24.2869 1.63324 0
685 1 Si 55.5748 26.2884 1.6309 0
686 1 Si 58.8395 26.0977 1.62803 0
687 1 Si 190.245 59.0247 1.61403 0
688 1 Si 187.202 60.2465 1.62141 0
689 1 Si 176.174 60.6564 1.63746 0
690 1 Si 67.3385 24.7264 1.62535 0
691 1 Si 64.415 26.3592 1.63165 0
692 1 Si 193.243 60.3927 1.63001 0
693 1 Si 72.9034 24.3982 1.62163 0
694 1 Si 70.4214 26.6598 1.61818 0
695 1 Si 102.145 60.1779 1.62056 0
696 1 Si 99.9772 54.9292 1.63983 0
697 1 Si 99.6629 58.1182 1.62565 0
698 1 Si 75.9889 25.4303 1.62372 0
699 1 Si 118.239 62.6043 1.63696 0
700 1 Si 121.248 61.6739 1.62551 0
701 1 Si 135.335 60.1483 1.60352 0
702 1 Si 132.158 60.5789 1.65582 0
703 1 Si 139.981 62.5131 1.63286 0
704 1 Si 136.832 62.9187 1.60699 0
705 1 Si 92.5813 24.5776 1.62709 0
706 1 Si 154.957 58.9141 1.62304 0
707 1 Si 99.669 25.529 1.61092 0
708 1 Si 162.361 59.5573 1.63753 0
709 1 Si 156.786 61.9616 1.65446 0
710 1 Si 160.168 61.9854 1.62287 0
711 1 Si 15.4166 24.8502 1.61721 0
712 1 Si 9.60172 27.224 1.61957 0
713 1 Si 12.999 27.6409 1.63053 0
714 1 Si 30.6957 26.1932 1.62499 0
715 1 Si 36.3132 28.0852 1.62567 0
716 1 Si 33.034 28.3975 1.61032 0
717 1 Si 43.3445 25.3033 1.6429 0
718 1 Si 200.213 61.4455 1.62199 0
719 1 Si 1.00609 59.1425 1.63489 0
720 1 Si 203.324 61.8488 1.64552 0
721 1 Si 193.969 63.5485 1.61509 0
722 1 Si 196.582 65.3247 1.60408 0
723 1 Si 199.604 64.6718 1.63069 0
724 1 Si 112.949 64.3043 1.62431 0
725 1 Si 107.558 63.5753 1.62698 0
726 1 Si 110.061 65.4284 1.63171 0
727 1 Si 47.8047 27.5136 1.63072 0
728 1 Si 44.3983 28.2214 1.62969 0
729 1 Si 117.812 65.9243 1.63818 0
730 1 Si 114.822 66.9407 1.63332 0
731 1 Si 54.2862 29.314 1.63034 0
732 1 Si 48.5883 30.5613 1.61802 0
733 1 Si 51.6954 31.2261 1.61156 0
734 1 Si 126.063 62.7169 1.62074 0
735 1 Si 123.257 64.2471 1.63523 0
736 1 Si 59.3646 29.1848 1.61745 0
737 1 Si 56.8389 31.035 1.62911 0
738 1 Si 80.3737 28.2856 1.62453 0
739 1 Si 77.1476 28.4234 1.63142 0
740 1 Si 131.458 63.7408 1.63247 0
741 1 Si 128.443 65.0538 1.64558 0
742 1 Si 85.6077 28.2287 1.61318 0
743 1 Si 83.0092 30.1405 1.61454 0
744 1 Si 91.646 27.8286 1.63322 0
745 1 Si 88.6399 29.2857 1.62701 0
746 1 Si 144.985 64.0528 1.62866 0
747 1 Si 141.931 65.0709 1.63025 0
748 1 Si 149.936 64.6869 1.61722 0
749 1 Si 147.179 66.3865 1.62859 0
750 1 Si 27.62 27.1496 1.60508 0
751 1 Si 22.2137 29.9277 1.62311 0
752 1 Si 28.1215 30.325 1.63397 0
753 1 Si 25.2527 31.8849 1.62994 0
754 1 Si 170.645 65.8365 1.6287 0
755 1 Si 165.195 64.5991 1.61675 0
756 1 Si 167.504 66.8277 1.61247 0
757 1 Si 177.322 63.9098 1.6203 0
758 1 Si 173.173 68.1212 1.63466 0
759 1 Si 176.154 66.9805 1.63122 0
760 1 Si 182.726 62.8345 1.61317 0
761 1 Si 180.437 65.0575 1.63148 0
762 1 Si 38.4085 30.7037 1.62904 0
763 1 Si 41.8182 30.4912 1.61237 0
764 1 Si 185.952 63.2909 1.63066 0
765 1 Si 193.002 66.5802 1.63483 0
766 1 Si 187.354 66.2373 1.61284 0
767 1 Si 190.13 67.7815 1.62779 0
768 1 Si 61.7479 31.1192 1.62494 0
769 1 Si 64.6331 29.8315 1.61844 0
770 1 Si 3.66046 60.9175 1.63856 0
771 1 Si 5.15875 56.1005 1.62636 0
772 1 Si 6.1354 59.1558 1.62939 0
773 1 Si 71.648 30.1839 1.63839 0
774 1 Si 75.1177 30.9015 1.64221 0
775 1 Si 122.76 67.5246 1.64744 0
776 1 Si 119.746 68.6189 1.63901 0
777 1 Si 99.1699 28.6713 1.63652 0
778 1 Si 93.6149 30.401 1.62084 0
779 1 Si 96.8287 30.8236 1.64615 0
780 1 Si 134.443 65.0405 1.62668 0
781 1 Si 135.202 68.1088 1.6323 0
782 1 Si 141.147 68.2986 1.62407 0
783 1 Si 138.122 69.4909 1.62046 0
784 1 Si 13.2325 31.1602 1.63364 0
785 1 Si 10.6123 33.6461 1.60613 0
786 1 Si 155.572 65.1964 1.61609 0
787 1 Si 152.551 66.5557 1.63373 0
788 1 Si 16.2345 32.5965 1.62248 0
789 1 Si 19.6197 32.0891 1.6187 0
790 1 Si 161.954 64.7513 1.62919 0
791 1 Si 31.3827 31.2148 1.61489 0
792 1 Si 36.8179 33.6697 1.62608 0
793 1 Si 33.4317 33.8985 1.62952 0
794 1 Si 46.4831 33.0231 1.63656 0
795 1 Si 43.3267 33.3678 1.61485 0
796 1 Si 195.666 68.3733 1.58789 0
797 1 Si 1.41258 64.3733 1.64558 0
798 1 Si 4.49383 63.9962 1.61756 0
799 1 Si 201.375 67.3943 1.61076 0
800 1 Si 0.70182 67.375 1.60621 0
801 1 Si 50.8475 34.2822 1.63135 0
802 1 Si 48.0348 35.7647 1.62074 0
803 1 Si 105.218 65.6108 1.63414 0
804 1 Si 102.15 65.8558 1.62981 0
805 1 Si 100.759 63.0491 1.63925 0
806 1 Si 109.261 68.4321 1.64466 0
807 1 Si 106.187 68.5696 1.62984 0
808 1 Si 57.4138 34.0671 1.6396 0
809 1 Si 60.516 34.0056 1.62667 0
810 1 Si 114.058 70.1301 1.63792 0
811 1 Si 111.002 70.9742 1.63963 0
812 1 Si 66.2556 32.7839 1.65521 0
813 1 Si 69.5242 32.9735 1.6289 0
814 1 Si 127.757 68.3701 1.62075 0
815 1 Si 124.889 69.999 1.63047 0
816 1 Si 77.3809 33.488 1.64988 0
817 1 Si 83.3883 33.4037 1.61794 0
818 1 Si 80.5029 34.9037 1.63649 0
819 1 Si 132.928 70.327 1.59987 0
820 1 Si 129.81 70.818 1.6396 0
821 1 Si 88.7082 32.5264 1.61537 0
822 1 Si 91.8516 33.1018 1.61214 0
823 1 Si 146.548 69.5978 1.63733 0
824 1 Si 143.436 70.7236 1.62806 0
825 1 Si 98.128 33.8053 1.63055 0
826 1 Si 160.612 67.7041 1.64312 0
827 1 Si 157.327 67.9829 1.614 0
828 1 Si 166.224 69.7417 1.63677 0
829 1 Si 162.935 70.0256 1.62381 0
830 1 Si 168.279 72.2332 1.60535 0
831 1 Si 173.778 71.5329 1.63329 0
832 1 Si 171.276 73.4057 1.63541 0
833 1 Si 15.6119 35.7925 1.6294 0
834 1 Si 20.9103 35.0654 1.62237 0
835 1 Si 18.4872 36.9869 1.64357 0
836 1 Si 181.164 68.2797 1.62469 0
837 1 Si 178.27 69.4907 1.61256 0
838 1 Si 186.509 69.3147 1.60156 0
839 1 Si 183.617 70.5156 1.64375 0
840 1 Si 42.0123 36.3669 1.6334 0
841 1 Si 38.7249 36.413 1.63687 0
842 1 Si 189.306 70.8853 1.60955 0
843 1 Si 52.6235 36.7385 1.60355 0
844 1 Si 55.6998 36.6231 1.61558 0
845 1 Si 61.7082 36.8641 1.62935 0
846 1 Si 64.8123 35.8308 1.61231 0
847 1 Si 119.086 71.9142 1.64841 0
848 1 Si 115.969 72.7373 1.6441 0
849 1 Si 69.766 36.385 1.6314 0
850 1 Si 75.4824 35.9271 1.604 0
851 1 Si 72.6983 37.2657 1.62651 0
852 1 Si 86.4616 34.8657 1.63606 0
853 1 Si 124.238 73.3499 1.64601 0
854 1 Si 121.172 74.5031 1.62669 0
855 1 Si 137.46 72.6794 1.63022 0
856 1 Si 134.335 73.1683 1.6102 0
857 1 Si 93.1426 35.9916 1.62723 0
858 1 Si 96.2911 36.3449 1.6327 0
859 1 Si 152.01 69.8546 1.62189 0
860 1 Si 149.097 71.6865 1.63062 0