LAMMPS data file via write_data, version 2 Aug 2023, timestep = 138, units = metal

15252 atoms
2 atom types

7.474509689652925 195.05806189629348 xlo xhi
6.564734727156063 168.56611033902834 ylo yhi
-100 100 zlo zhi

Masses

1 28.085
2 15.999

Atoms # full

9112 1 2 0 8.188606050773258 7.392896123301864 -2.2015337779261204 0 0 0
6484 1 1 0 9.613516812446493 6.708704133884676 -1.6501269848096867 0 1 0
9118 1 2 0 10.985827362992513 7.481841995629711 -2.228315255676667 0 0 0
6483 1 1 0 12.335669060821383 8.275175217084362 -1.6469941643267965 0 0 0
9116 1 2 0 12.335052222795479 9.832584272912067 -2.2079178450651633 0 0 0
6482 1 1 0 11.595199141828 11.179241170319555 -1.6408293477101057 0 0 0
9103 1 2 0 10.006730546981972 10.967037089655484 -2.0946191287604603 0 0 0
6474 1 1 0 8.81969788694433 12.035181591049952 -1.6371878801574578 0 0 0
12829 1 2 0 8.64165662058789 12.168480107238207 -2.599143855821565e-07 0 0 0
9119 1 2 0 13.841915767793948 7.794631286023039 -2.1947527910823705 0 0 0
6800 1 1 0 15.373720505057028 8.203855033140409 -1.644445673003425 0 0 0
9604 1 2 0 16.32809009409271 6.934326463121786 -2.128886643875344 0 0 0
9601 1 2 0 16.085924423281597 9.613298028713656 -2.225074354714029 0 0 0
6798 1 1 0 17.364967357024327 10.541586156871482 -1.6487036589290944 0 0 0
9600 1 2 0 17.469721415692153 12.1285932969521 -2.17084808539726 0 0 0
9611 1 2 0 21.099782842473235 8.602758249259102 -2.216905238042965 0 0 0
6808 1 1 0 21.214587059553505 7.0379042284130415 -1.648781291578515 0 0 0
9602 1 2 0 18.78486391792962 9.862093713966063 -2.1761050055893314 0 0 0
6804 1 1 0 20.352806304218394 9.98697278033753 -1.6477258904656835 0 0 0
9610 1 2 0 21.03554916765004 11.40165899632456 -2.220573506435523 0 0 0
13159 1 2 0 20.44453687268651 10.01369571646086 -4.86222812840457e-07 0 0 0
9627 1 2 0 24.97865600862538 7.364319484666 -2.189215923906461 0 0 0
6814 1 1 0 25.650411565403907 8.803585923521604 -1.648690312203994 0 0 0
9628 1 2 0 27.180693900145663 8.771816423212345 -2.26015016132986 0 0 0
6824 1 1 0 28.63824917875441 8.351839253838294 -1.6477305645452829 0 0 0
9644 1 2 0 29.082093496469994 6.887895706780245 -2.2855692919788217 0 0 0
9625 1 2 0 25.101956806786752 10.293897843876422 -2.195030296785444 0 0 0
6813 1 1 0 24.961934691201257 11.874512524282459 -1.6476442563425036 0 0 0
13169 1 2 0 25.555516554112867 8.803583366010255 -7.482046588472242e-07 0 0 0
13179 1 2 0 28.604493796052402 8.270604015559162 8.907144868277205e-09 0 0 0
9642 1 2 0 32.07043971818038 8.525371885907182 -2.2424278401331406 0 0 0
6835 1 1 0 33.134645240360946 7.411964858716046 -1.6496031329325878 0 0 0
9658 1 2 0 34.57992320754584 7.806020632452352 -2.3003929486113006 0 0 0
9641 1 2 0 29.652860489463404 9.54980376458796 -2.1590040341412435 0 0 0
6822 1 1 0 31.20334859811138 9.796489933942535 -1.6436524674551427 0 0 0
9638 1 2 0 31.712480896286674 11.237010230340074 -2.2634120179713735 0 0 0
13190 1 2 0 33.10655959445578 7.428945859549781 -5.320012938051326e-07 0 0 0
6832 1 1 0 35.93162082846066 8.43434879439489 -1.6478612789819682 0 0 0
9657 1 2 0 37.11322174127979 7.460264883343913 -2.2413934551775543 0 0 0
6834 1 1 0 38.59351701437425 7.082437246306383 -1.649956489286145 0 0 0
9659 1 2 0 39.624543094239385 8.192462087065845 -2.2772051172140473 0 0 0
9648 1 2 0 36.01052809260484 9.97932476672116 -2.2096787449377007 0 0 0
6826 1 1 0 36.848966760039595 11.277153943631864 -1.6470855980934302 0 0 0
9646 1 2 0 38.376354937669284 11.14456466740645 -2.2517824860637194 0 0 0
6827 1 1 0 39.868084921606915 11.497203374724144 -1.6454095923255 0 0 0
9650 1 2 0 41.01440135270086 10.415219188975708 -2.1448047720423133 0 0 0
6833 1 1 0 40.98404817896458 8.845097489802848 -1.641817836380845 0 0 0
9660 1 2 0 42.26718658716743 8.021950586901639 -2.236223572488061 0 0 0
6838 1 1 0 43.81431032604099 8.030797081238626 -1.648865302513341 0 0 0
9664 1 2 0 44.48855887140931 9.428626579407878 -2.2354458812062443 0 0 0
6836 1 1 0 45.12490845875732 10.857402107391534 -1.6495108968850554 0 0 0
9663 1 2 0 44.403121274745615 12.258119760432809 -2.217695057646127 0 0 0
13188 1 2 0 40.99024478662174 8.759251225756165 -1.6213223226920442e-07 0 0 0
13193 1 2 0 43.92597494049574 8.057431979093332 -5.635311111335539e-07 0 0 0
6848 1 1 0 49.597861605200855 7.839942379089142 -1.6458824439190065 0 0 0
9684 1 2 0 51.16705570726172 8.084009615832416 -2.1589806770992657 0 0 0
9665 1 2 0 46.6647123364006 10.810973880456478 -2.2253879051857535 0 0 0
6844 1 1 0 48.205960685384426 10.72601593235414 -1.6472104413472657 0 0 0
9677 1 2 0 48.78551818769574 9.228444268525886 -2.1781899173918964 0 0 0
9676 1 2 0 48.8238569120028 12.195140882618988 -2.1862402925146136 0 0 0
9693 1 2 0 53.79439043651224 8.519604241022074 -2.232358487709067 0 0 0
6865 1 1 0 55.11890946757275 7.706104764563444 -1.6502066490688283 0 0 0
9701 1 2 0 56.47353855177804 8.470118447766628 -2.217698900810455 0 0 0
6854 1 1 0 52.36284202205209 9.123801255653584 -1.6481161980442742 0 0 0
9691 1 2 0 52.101572859179086 10.672060308797754 -2.2203576924628337 0 0 0
6853 1 1 0 52.28963428009435 12.230676805430043 -1.6478966969059508 0 0 0
13209 1 2 0 52.398244233168526 9.16230422595824 -6.479194483449291e-07 0 0 0
13208 1 2 0 52.293087293789625 12.170528126240889 -3.8940681853524037e-07 0 0 0
6860 1 1 0 60.474858303109364 7.491997639902737 -1.6492343950192665 0 0 0
9700 1 2 0 59.15192166700674 8.326546712867465 -2.2165271938530977 0 0 0
9702 1 2 0 61.812299889715085 8.308892808638122 -2.2090437729152694 0 0 0
6858 1 1 0 57.85293032924016 9.193831650875767 -1.6492590779586327 0 0 0
9697 1 2 0 57.892813247615614 10.754865545930226 -2.2309252563058304 0 0 0
13215 1 2 0 60.46609477181913 7.464962422986811 -3.13885394216762e-07 0 0 0
6857 1 1 0 57.67961375562711 12.29582419200986 -1.646791561267419 0 0 0
6866 1 1 0 65.49119645348061 6.784912397245391 -1.6481112945116074 0 0 0
9704 1 2 0 64.45211279319668 7.899265817414113 -2.2618674036845228 0 0 0
9714 1 2 0 67.00086719391719 7.147917358572929 -2.2127855890006844 0 0 0
6859 1 1 0 63.27010448970853 8.878819598436486 -1.6501333090440793 0 0 0
9703 1 2 0 63.62090051449326 10.393806684860536 -2.232800500667436 0 0 0
6862 1 1 0 64.23195386225883 11.82168754454696 -1.6475399153978978 0 0 0
9709 1 2 0 65.75823168492524 12.1583399926906 -2.2239890962840616 0 0 0
13217 1 2 0 64.26820208259534 11.771727036598335 -1.227753442214707e-07 0 0 0
13221 1 2 0 65.45972152080384 6.8104002713372385 -1.065027696869617e-06 0 0 0
9743 1 2 0 68.40623495667234 11.980490519206159 -2.200119415983337 0 0 0
6927 1 1 0 68.49261677142498 6.719950097644729 -1.647816232469604 0 0 0
9744 1 2 0 69.53245264906256 7.834670859880085 -2.2682929949515582 0 0 0
6883 1 1 0 70.71980756140546 8.78977409541623 -1.650014048147703 0 0 0
9735 1 2 0 72.1482860745293 8.173946377502352 -2.21451989527112 0 0 0
9741 1 2 0 70.48965855233544 10.308443265191736 -2.253291140782206 0 0 0
6882 1 1 0 69.95185493351525 11.744523398705587 -1.649128427721915 0 0 0
13238 1 2 0 70.71017573968507 8.814907119500644 -5.59988704772197e-07 0 0 0
6878 1 1 0 73.69511580880369 8.269998618297121 -1.6479131002171707 0 0 0
9734 1 2 0 74.60917072010062 7.035722878658693 -2.2303436075594605 0 0 0
9736 1 2 0 78.60239431078877 7.582345139858559 -2.208266795142166 0 0 0
9726 1 2 0 74.37700229409369 9.62369256424848 -2.2845664569589927 0 0 0
6873 1 1 0 75.28567704023844 10.825323397876131 -1.6466616618454648 0 0 0
9724 1 2 0 76.8168499361443 10.72567279986528 -2.2510193731573382 0 0 0
6874 1 1 0 78.28048930478069 11.177234334549343 -1.6455025844872644 0 0 0
9725 1 2 0 74.57349614005221 12.195340692979615 -2.2046872103161785 0 0 0
13228 1 2 0 75.3003629189001 10.763271669416607 -1.6047560415804563e-07 0 0 0
13233 1 2 0 73.69797303288783 8.265828035518744 4.618402654353027e-09 0 0 0
9728 1 2 0 79.39151591240983 10.10632473727509 -2.1970701146295677 0 0 0
6879 1 1 0 79.77538897758961 8.607839715164166 -1.6463677214380306 0 0 0
9737 1 2 0 81.3229415850455 8.409167625954654 -2.2332862745349127 0 0 0
6895 1 1 0 84.60630663067919 7.1277968538043615 -1.6419666247256952 0 0 0
9750 1 2 0 84.02181300271981 8.55607796735238 -2.2162066177119506 0 0 0
6887 1 1 0 82.63141098932161 9.253480263435453 -1.6478678443638122 0 0 0
9747 1 2 0 82.77782436921022 10.833678404111927 -2.140973830646589 0 0 0
6885 1 1 0 84.07174890957681 11.773418359739631 -1.6464301733400277 0 0 0
13234 1 2 0 79.78043663636255 8.507274695260922 -6.746374281793235e-07 0 0 0
13242 1 2 0 82.57658812220379 9.208596790779653 -3.4153368000385566e-07 0 0 0
13240 1 2 0 84.17881745317518 11.81545290084371 -1.7582593166096383e-07 0 0 0
9762 1 2 0 86.11978007679818 6.8640377766928005 -2.222886998719588 0 0 0
6894 1 1 0 87.49747092378055 7.586815482990806 -1.648404010420477 0 0 0
9763 1 2 0 88.67454057752569 6.587063883827377 -2.249403014096144 0 0 0
6888 1 1 0 86.97862506282095 10.65381083303027 -1.6472088711504533 0 0 0
9748 1 2 0 85.51376981884655 11.190465052827593 -2.2422441412994942 0 0 0
9752 1 2 0 87.48880311797654 9.161268907789584 -2.206498680043618 0 0 0
9751 1 2 0 88.07577861430282 11.769510023214236 -2.1787360586755167 0 0 0
13249 1 2 0 87.60372699393318 7.632795956688784 -1.467475292767513e-07 0 0 0
6897 1 1 0 92.3351829439813 7.072223192532712 -1.6451710499189667 0 0 0
9765 1 2 0 91.87307430301901 8.608771570181952 -2.1805421926139683 0 0 0
9754 1 2 0 90.69355160684964 11.333951908674896 -2.1769084724708216 0 0 0
6896 1 1 0 91.85458090633621 10.219701715779538 -1.6491603498959788 0 0 0
9766 1 2 0 93.2911513242751 10.790990823355258 -2.238259710934493 0 0 0
6899 1 1 0 94.66728109645335 11.468513867753062 -1.6482331234140835 0 0 0
13251 1 2 0 91.7709289289948 10.183008956880382 -1.9998486085309013e-07 0 0 0
6903 1 1 0 97.59954174065018 6.937361099930491 -1.6485595509643574 0 0 0
9775 1 2 0 97.38942537894724 8.467890963647884 -2.2332037811975463 0 0 0
9771 1 2 0 95.96866185314994 10.660271890608813 -2.249143664562936 0 0 0
6902 1 1 0 97.35850483038344 10.009827882507688 -1.650187985049828 0 0 0
9776 1 2 0 98.62848941546417 10.899202918959407 -2.245689715638911 0 0 0
9129 1 2 0 101.25462091943224 10.417060756306586 -2.1925067191526173 0 0 0
6906 1 1 0 100.07684546228462 11.429965969508306 -1.648260440920233 0 0 0
13261 1 2 0 99.98296251277458 11.476759971632793 -8.282379577973552e-08 0 0 0
13258 1 2 0 97.60883760865498 6.930197397489616 -2.4620646160282594e-07 0 0 0
9102 1 2 0 9.46554426476504 13.439308564586868 -2.2616625709052274 0 0 0
9117 1 2 0 12.416574603696168 12.487079883824114 -2.270448821341689 0 0 0
6476 1 1 0 9.758553971128052 14.945303668946666 -1.6431856046610192 0 0 0
9106 1 2 0 8.396830482348717 15.695968888963156 -2.167651137046766 0 0 0
9107 1 2 0 11.023153068983177 15.85569205312196 -2.229482313480435 0 0 0
6478 1 1 0 7.849136860307323 17.1370038833427 -1.6413361529776693 0 0 0
6502 1 1 0 12.536404132577081 16.238488280294835 -1.6414280806632053 0 0 0
12833 1 2 0 7.7716758851796595 17.235647598367173 -2.076102514344539e-06 0 0 0
12857 1 2 0 12.462800216458941 16.37881418864779 -6.67625353361972e-08 0 0 0
6503 1 1 0 13.61704706984021 13.450707203929422 -1.6447545296729065 0 0 0
9149 1 2 0 15.108843858596767 13.041238348965715 -2.212531721327947 0 0 0
6799 1 1 0 16.61347536230669 13.463253804832435 -1.647986893090038 0 0 0
9147 1 2 0 13.486936217554442 15.005135139073559 -2.1703685625827895 0 0 0
9603 1 2 0 17.14283543060724 14.94766675664277 -2.2187714953732485 0 0 0
6807 1 1 0 18.05938677407449 16.24128860070303 -1.6486917537489485 0 0 0
9148 1 2 0 13.275848646451612 17.589455196502417 -2.253046984867852 0 0 0
9616 1 2 0 17.650792173091354 17.773303150340006 -2.1904223422187177 0 0 0
12858 1 2 0 13.557193666824157 13.388783737120889 -5.767584944885319e-08 0 0 0
13154 1 2 0 16.640520226100374 13.560114416555555 -1.7179263216304238e-07 0 0 0
13162 1 2 0 17.988829467923 16.246680546446026 -5.367602572074235e-09 0 0 0
6805 1 1 0 21.970043634975816 12.664590623200699 -1.6482458449085013 0 0 0
9613 1 2 0 23.502667913629153 12.408398707513841 -2.2065804232370456 0 0 0
6806 1 1 0 21.11017879274242 15.683352008470903 -1.6478411639894013 0 0 0
9614 1 2 0 19.58559551203304 15.963155882562546 -2.2154260587173487 0 0 0
9612 1 2 0 21.5422549453796 14.17440005026335 -2.2212342723439487 0 0 0
9615 1 2 0 22.031792126907106 16.95778971032123 -2.206058775631085 0 0 0
13161 1 2 0 21.167603146809327 15.656822901286077 -1.2896641335709496e-07 0 0 0
13160 1 2 0 21.91049699347102 12.684981624680303 -3.0975571640794696e-07 0 0 0
9626 1 2 0 26.05938331532654 13.018995585627483 -2.2072579801490257 0 0 0
6818 1 1 0 26.781807963899524 14.421471318455287 -1.6485303971330287 0 0 0
9634 1 2 0 28.34281370571782 14.422205208267505 -2.212431578885913 0 0 0
9633 1 2 0 26.093099979092592 15.844863063819727 -2.197227555997485 0 0 0
6819 1 1 0 25.91243770638923 17.41260357174904 -1.649359913846616 0 0 0
9635 1 2 0 24.47125337771448 17.990621139610216 -2.223105833996836 0 0 0
13173 1 2 0 26.742266091351887 14.414781898720145 -8.642189215365308e-07 0 0 0
6821 1 1 0 32.018995690523674 12.745052017890757 -1.6507360836851261 0 0 0
9640 1 2 0 33.48862398283412 13.210038087292086 -2.238792901164116 0 0 0
6828 1 1 0 34.96583367565022 13.6382674424429 -1.6488966207795903 0 0 0
6823 1 1 0 29.822037930461065 14.903904466557215 -1.6485327785614914 0 0 0
9639 1 2 0 30.900754850338064 13.802990785892659 -2.2426814343084067 0 0 0
9643 1 2 0 30.2309230497161 16.404925597525004 -2.224828259131565 0 0 0
6914 1 1 0 30.7412971743601 17.87785034686625 -1.6488892136323874 0 0 0
13269 1 2 0 30.77981657203445 17.854998890211952 -8.254808053626997e-07 0 0 0
13178 1 2 0 29.835569258350045 14.923723939383178 -1.4840553955048875e-06 0 0 0
9655 1 2 0 35.00002512527095 17.704732150466064 -2.2278145963196128 0 0 0
13176 1 2 0 32.01085692009887 12.734270326234542 -1.6211001968748416e-06 0 0 0
9647 1 2 0 36.11231847928201 12.616267219878516 -2.250967551362351 0 0 0
9651 1 2 0 35.35856279486147 15.118664563846254 -2.243675266517545 0 0 0
9652 1 2 0 39.99279483007289 15.40185807354994 -2.2522592854843326 0 0 0
6830 1 1 0 35.9980505123492 16.517487014542976 -1.6496157035993966 0 0 0
9654 1 2 0 37.546988595723825 16.682144934022887 -2.234483232071548 0 0 0
6831 1 1 0 39.10120241792354 16.649318320007346 -1.6464838320427695 0 0 0
9656 1 2 0 39.970155862101066 17.92179032995433 -2.210027240292362 0 0 0
13185 1 2 0 36.03524975226686 16.526625197296077 -1.186078589002665e-06 0 0 0
9649 1 2 0 40.34738980115871 12.902078540548542 -2.3083811337861664 0 0 0
6829 1 1 0 41.005202619052696 14.252917013475548 -1.6502442903004715 0 0 0
9653 1 2 0 42.562873391608996 14.317198789809474 -2.2046174570437485 0 0 0
6837 1 1 0 44.03932316216161 13.791259967523079 -1.6475199640155047 0 0 0
9666 1 2 0 45.116446868765955 14.946642850135152 -2.1778369700724594 0 0 0
6846 1 1 0 45.46048703952974 16.495411309735154 -1.6494272263895304 0 0 0
9681 1 2 0 44.279655996798695 17.56120794845296 -2.195901493612754 0 0 0
9679 1 2 0 51.146693864279975 13.321417553865874 -2.1625228247368615 0 0 0
6845 1 1 0 49.58797631021474 13.597292818162373 -1.6431124709069882 0 0 0
9678 1 2 0 49.135483854032124 15.139220266024184 -2.183202823718791 0 0 0
9680 1 2 0 47.006657684172886 16.84355564698414 -2.187467123456502 0 0 0
6847 1 1 0 48.58533873567449 16.667856750233753 -1.6495668509266714 0 0 0
9682 1 2 0 49.423870676331966 18.059293534402332 -2.161004786216353 0 0 0
9692 1 2 0 53.70147690493214 12.836713032729453 -2.2470533326195214 0 0 0
9699 1 2 0 56.29240005498419 12.9854755168786 -2.2305889282350195 0 0 0
6864 1 1 0 54.941729826700644 13.744587081326364 -1.650138542924484 0 0 0
9711 1 2 0 54.79328633056636 15.29642857316021 -2.2271217734593076 0 0 0
6919 1 1 0 55.04338743804898 16.83332053884129 -1.6480188596486527 0 0 0
9798 1 2 0 53.84414780253944 17.85143490554995 -2.1918706925692284 0 0 0
9799 1 2 0 56.50940077194681 17.381274365204376 -2.206005162749129 0 0 0
13219 1 2 0 54.96053780706696 13.770362329927814 -2.520502727957848e-07 0 0 0
9698 1 2 0 58.918715974173885 13.250629541579093 -2.192387487098555 0 0 0
6861 1 1 0 59.60750140941517 14.657377112583026 -1.6493450575651558 0 0 0
9706 1 2 0 61.140396085752094 14.666590689318154 -2.254872085798519 0 0 0
9707 1 2 0 58.839896286276435 16.00077905602898 -2.2484301570638805 0 0 0
6922 1 1 0 58.0726577212341 17.340243795739397 -1.6476014041006772 0 0 0
6863 1 1 0 62.65736550447018 14.445211667173798 -1.6493435335756614 0 0 0
9708 1 2 0 63.20192202046799 12.988417971657741 -2.2040640860669973 0 0 0
6924 1 1 0 67.13617181240397 12.89042366946206 -1.648146826369435 0 0 0
9710 1 2 0 63.61227125969951 15.644973705694946 -2.2597877307658916 0 0 0
9805 1 2 0 67.36078238687494 14.436368735647735 -2.2208305396737478 0 0 0
6925 1 1 0 67.40345476106464 16.00097612933145 -1.6479648714986812 0 0 0
6926 1 1 0 64.51858962529565 16.88026637451061 -1.6458139619261116 0 0 0
9806 1 2 0 66.0674118809594 16.784400994349557 -2.2245061320325457 0 0 0
13280 1 2 0 67.43651927740902 15.951351808107376 -8.315071011501729e-07 0 0 0
9742 1 2 0 71.00168883307862 12.879996478950734 -2.237312816783949 0 0 0
6884 1 1 0 71.71314716697862 14.249797521654909 -1.6489460923425252 0 0 0
9745 1 2 0 70.91141247051658 15.540366929363612 -2.2597763562629116 0 0 0
9730 1 2 0 73.25543251409657 14.437931158391017 -2.215000289039245 0 0 0
9807 1 2 0 68.69427769203725 16.903460210461873 -2.191948254582504 0 0 0
6928 1 1 0 70.26911959338555 16.925624209775197 -1.6486898785038406 0 0 0
13283 1 2 0 70.29065047785227 16.980917677519724 -2.6286569531019487e-07 0 0 0
9727 1 2 0 78.76922065924954 12.612660144516578 -2.276196056518865 0 0 0
6875 1 1 0 74.63496501732428 13.739795651755353 -1.6466772215513312 0 0 0
9729 1 2 0 75.97405168214308 14.467376742164115 -2.281777697010481 0 0 0
6877 1 1 0 77.09006076167083 15.507569390833055 -1.6457127800344895 0 0 0
9731 1 2 0 78.64442034782644 15.210867262299903 -2.148525316573457 0 0 0
9733 1 2 0 76.68157431288306 16.991890696544438 -2.2137450741429925 0 0 0
13230 1 2 0 74.6889009442802 13.777038583680707 -3.150728587856453e-08 0 0 0
6876 1 1 0 79.55559868294364 13.917646710797046 -1.6449052157739632 0 0 0
9746 1 2 0 83.71790464254138 13.296623544809002 -2.215658577860767 0 0 0
9732 1 2 0 81.0817993450736 13.999943377511942 -2.2572356175492843 0 0 0
6886 1 1 0 82.5831738900329 14.372030134415267 -1.6508474104822983 0 0 0
9749 1 2 0 82.99850719491994 15.867710556651938 -2.22233579119957 0 0 0
6891 1 1 0 82.75233732215338 17.400284648513946 -1.6486711953176278 0 0 0
13246 1 2 0 82.75132406235724 17.423606474649144 -4.910774172043518e-07 0 0 0
9758 1 2 0 81.27479452132505 17.936829403200633 -2.198536505487497 0 0 0
13241 1 2 0 82.55111510453725 14.366971644607379 -5.40994449205733e-07 0 0 0
13231 1 2 0 79.63125503866976 13.843331356170973 -1.8990171169764795e-07 0 0 0
6889 1 1 0 89.4979935937426 12.422984268597402 -1.643007065514647 0 0 0
6890 1 1 0 89.5295133801865 15.643264877314012 -1.64679338027726 0 0 0
9753 1 2 0 89.3747265490681 14.03323679692035 -2.167875354800867 0 0 0
9755 1 2 0 88.60443226295791 16.97915875638498 -2.154229950909538 0 0 0
13244 1 2 0 89.64476149343606 12.474462483626661 -3.9873454897713483e-07 0 0 0
9770 1 2 0 94.76054126716168 12.994932829053925 -2.253684143582291 0 0 0
9756 1 2 0 90.99452562429336 16.052248297589273 -2.2717948582459644 0 0 0
9772 1 2 0 93.46699947470862 15.29388314760672 -2.250700646871921 0 0 0
6900 1 1 0 94.77870447135165 14.518272565501134 -1.6498942977549125 0 0 0
6901 1 1 0 92.45566444991077 16.431856259563048 -1.6470802353766838 0 0 0
9774 1 2 0 92.89879934403636 17.9033456014405 -2.23305891279075 0 0 0
9781 1 2 0 100.57213669797567 12.901837957255507 -2.2346135336811095 0 0 0
9773 1 2 0 96.0720072603503 15.314141799691237 -2.286909729381166 0 0 0
9782 1 2 0 98.57909644379471 14.514231092120903 -2.0945150328592756 0 0 0
6908 1 1 0 97.52883604154546 15.693637698684348 -1.644877445356772 0 0 0
6907 1 1 0 100.16072532162164 14.382543693523637 -1.6378054475143016 0 0 0
9191 1 2 0 101.08038818415434 15.591359335738929 -2.288008170532161 0 0 0
9783 1 2 0 98.0975910628758 17.095136043322654 -2.3187295863898685 0 0 0
13263 1 2 0 97.39799539904179 15.807658573322403 -3.0450994791300036e-09 0 0 0
6528 1 1 0 8.945028594342725 19.86384957643489 -1.6423604001586596 0 0 0
9110 1 2 0 8.914128023284963 18.291791780877155 -2.171496880890524 0 0 0
9186 1 2 0 10.298959775714584 20.57089291929721 -2.2677955847576756 0 0 0
6546 1 1 0 11.757187054227835 21.08109302772424 -1.6516416977429043 0 0 0
9215 1 2 0 12.07614002161378 22.579766194359 -2.2663542699865187 0 0 0
9184 1 2 0 7.54654034467245 20.548223505054363 -2.211482183885314 1 0 0
6547 1 1 0 13.985709055644802 18.974329114156056 -1.6486400408064041 0 0 0
9214 1 2 0 13.011245766162686 20.178072473395957 -2.2180913866331124 0 0 0
9216 1 2 0 15.521906303356952 19.317561721506287 -2.1976056373897217 0 0 0
6913 1 1 0 17.103998945269023 19.269261442950146 -1.648855250695877 0 0 0
9790 1 2 0 17.985258327333863 20.622408827327423 -2.1747411516466735 0 0 0
9831 1 2 0 18.48123120639249 23.448805072724397 -2.1826177208348665 0 0 0
12902 1 2 0 14.023927402696108 18.89923016147321 -2.2276436865802594e-06 0 0 0
6820 1 1 0 22.93828656596403 18.245987137058293 -1.648698143442956 0 0 0
9637 1 2 0 22.44577048228146 19.74789135887107 -2.2005144644873935 0 0 0
6942 1 1 0 18.97178157419467 21.90846032328482 -1.6500449474095034 0 0 0
9830 1 2 0 20.551187207773168 21.672158654084136 -2.172908271236369 0 0 0
6943 1 1 0 22.100023385157193 21.295985200044306 -1.6488439720706078 0 0 0
9832 1 2 0 23.22971933426381 22.42921527716144 -2.187311564242944 0 0 0
13175 1 2 0 22.897317524186157 18.259002053260833 1.9507241022509714e-06 0 0 0
9636 1 2 0 27.074034690550906 18.464036040721044 -2.215828165929419 0 0 0
6915 1 1 0 28.192355255683108 19.564652365543854 -1.6481830159425555 0 0 0
9793 1 2 0 27.920293161873406 21.110237801167226 -2.2175544553560753 0 0 0
6981 1 1 0 27.488231685769787 22.626670208228678 -1.649387104389975 0 0 0
9887 1 2 0 25.94149733839739 22.94312964232185 -2.196980053168959 0 0 0
6982 1 1 0 24.451026691838003 23.46396417033158 -1.6489483276777481 0 0 0
9888 1 2 0 28.561860916963006 23.793227998584285 -2.1879215970270667 0 0 0
9792 1 2 0 32.26789051377262 18.17630583377685 -2.2386284343358906 0 0 0
9791 1 2 0 29.69258475006842 19.06014665612869 -2.1770846898701937 0 0 0
6916 1 1 0 33.75352381723455 18.635981210911247 -1.646660143532806 0 0 0
9794 1 2 0 34.045221321246714 20.163867930156396 -2.188533046842553 0 0 0
9843 1 2 0 33.744791088795246 22.727168676602034 -2.1715254566717426 0 0 0
6950 1 1 0 34.811474532327495 21.52670471491996 -1.6450221866816193 0 0 0
13338 1 2 0 32.711857871983554 23.9096435838531 -7.663925715783541e-07 0 0 0
9796 1 2 0 39.25472301201323 20.370314987657316 -2.1982438580371753 0 0 0
9842 1 2 0 36.41315344354681 21.387685760368473 -2.2000070908988922 0 0 0
6951 1 1 0 38.002968148823214 21.34957395294919 -1.6247340439380722 0 0 0
9844 1 2 0 38.55812457719249 22.83348969598565 -2.0747520307200884 0 0 0
6985 1 1 0 39.81582373375519 23.803423970008176 -1.6361375089569545 0 0 0
6917 1 1 0 40.49884243991136 19.372293240889213 -1.6451764382442524 0 0 0
9795 1 2 0 42.10974205421008 19.458942914579207 -2.1866115257112186 0 0 0
6918 1 1 0 43.66430102694424 19.02883301259949 -1.64637882750191 0 0 0
9797 1 2 0 44.86043372020382 20.091581305286965 -2.1324705455179602 0 0 0
6953 1 1 0 45.31482175420001 21.619256626503503 -1.6434031533281004 0 0 0
9847 1 2 0 44.03347442093299 22.51209855339601 -2.2382768847438674 0 0 0
9893 1 2 0 41.28834990200377 23.271396433426357 -2.2201610700785097 0 0 0
6986 1 1 0 42.85220727438268 23.510541662674076 -1.6529887134168177 0 0 0
6920 1 1 0 50.132655834377275 19.527773990630163 -1.6497505537356076 0 0 0
9846 1 2 0 46.83764889750301 22.063336820711587 -2.199651712665106 0 0 0
9801 1 2 0 49.341645732304904 20.95668260103653 -2.139887859696953 0 0 0
6954 1 1 0 48.425528594070265 22.32061918297173 -1.651722378966903 0 0 0
9848 1 2 0 48.96059087562551 23.869812440450897 -2.1550653708798264 0 0 0
9800 1 2 0 51.73967406931201 19.57875920200156 -2.186977458985108 0 0 0
6921 1 1 0 53.31791192382735 19.34566755093985 -1.648608408392459 0 0 0
9802 1 2 0 54.44455745381481 20.47637588544693 -2.1877218799908906 0 0 0
6987 1 1 0 55.768861026132505 21.35699066269638 -1.6489160898938777 0 0 0
9896 1 2 0 55.60295650304297 22.904881536377914 -2.2249296755218286 0 0 0
9803 1 2 0 58.86109499947178 18.70072377013586 -2.180920794008836 0 0 0
6963 1 1 0 58.73989442849792 20.27605481056798 -1.6477330088947493 0 0 0
9863 1 2 0 57.26919355518386 20.856319629688137 -2.1982866345949263 0 0 0
9862 1 2 0 60.08767215450338 21.091942656694542 -2.218263651906587 0 0 0
6965 1 1 0 61.57228285220498 21.63451852815474 -1.6500074155507036 0 0 0
9866 1 2 0 61.8094493928205 23.19555063709194 -2.1917641276320827 0 0 0
9808 1 2 0 63.835989735995454 18.28902072796388 -2.1688035911962964 0 0 0
9864 1 2 0 62.85590781833009 20.727458868727535 -2.2219975716183846 0 0 0
6964 1 1 0 64.14432007054631 19.83612708796484 -1.6539239039154074 0 0 0
9865 1 2 0 65.6775509281669 20.176412396889205 -2.268423124390946 0 0 0
6988 1 1 0 66.72097864048533 21.249195812059913 -1.5231214851112986 0 0 0
9897 1 2 0 65.73689081602649 22.569678406960126 -1.4581195547066375 0 0 0
9810 1 2 0 71.22092756640198 18.152772899302136 -2.2334234344767068 0 0 0
6969 1 1 0 71.81963175390585 19.59012145343058 -1.6482067830460263 0 0 0
9872 1 2 0 70.73309277538652 20.6914539820329 -2.218228473601572 0 0 0
9871 1 2 0 73.34368930769216 19.961018696277087 -2.220956381760337 0 0 0
6991 1 1 0 69.73209055886433 21.868019515150596 -1.6501349182371117 0 0 0
9898 1 2 0 68.195334151591 21.550675071995883 -2.2546377836122415 0 0 0
9902 1 2 0 70.4518638981753 23.257355342802924 -2.209769582568541 0 0 0
13324 1 2 0 71.8702948759153 19.573079348708614 -1.9089079494458092e-07 0 0 0
13346 1 2 0 69.66923958522563 21.920485506459574 2.144643264731679e-06 0 0 0
6931 1 1 0 77.16034370170398 18.462898763460597 -1.64771105467531 0 0 0
6970 1 1 0 74.83086596336297 20.46336340838573 -1.6495417756453283 0 0 0
9815 1 2 0 76.00941282278009 19.472832730572534 -2.248804616788312 0 0 0
9814 1 2 0 78.67169267492174 18.770096237370296 -2.25035982601676 0 0 0
9873 1 2 0 75.29335409514823 21.950297617833776 -2.218663312342064 0 0 0
6995 1 1 0 75.90210609054523 23.381629220626525 -1.6474158355614665 0 0 0
9908 1 2 0 77.41713770180971 23.77364771121937 -2.222932520898727 0 0 0
13350 1 2 0 75.95329131019878 23.361281151945835 -9.275994401626818e-08 0 0 0
9757 1 2 0 83.99655396698711 18.319761838544846 -2.2360805857277453 0 0 0
6932 1 1 0 80.18421636641041 19.061295686186124 -1.6484652225905534 0 0 0
9816 1 2 0 80.62391969986469 20.536855711177378 -2.2407166630536404 0 0 0
6994 1 1 0 81.07155827637884 22.006605819982866 -1.648382799499971 0 0 0
9907 1 2 0 82.58662619147282 22.33020658832697 -2.2230232990325085 0 0 0
6997 1 1 0 84.13587805133494 22.20623130241621 -1.6486193273764962 0 0 0
13352 1 2 0 84.12301425129324 22.199237607642623 -4.481614686922728e-07 0 0 0
9906 1 2 0 80.02368262423501 23.134929100963472 -2.24183806960951 0 0 0
13287 1 2 0 80.15610674138495 19.057839146379504 -1.8564230618708553e-07 0 0 0
13349 1 2 0 81.05256720708266 22.01614569660855 -2.193156406460757e-06 0 0 0
9911 1 2 0 84.95894297954263 23.512344516744932 -2.2374727632019025 0 0 0
6892 1 1 0 88.19436872286472 18.54696716720857 -1.6483545132856106 0 0 0
9761 1 2 0 84.89261878815121 20.845747604521364 -2.2156828060672593 0 0 0
6893 1 1 0 85.18892797474305 19.311749328435372 -1.6493480496767652 0 0 0
9759 1 2 0 86.64832888127593 18.777849326984157 -2.220227949773145 0 0 0
9760 1 2 0 89.02363802347011 19.939556534244133 -2.155595712502242 0 0 0
13247 1 2 0 88.27022865930338 18.534173062487305 -2.657241588427003e-07 0 0 0
13248 1 2 0 85.18233327646465 19.304194367344966 -1.6158668073217182e-06 0 0 0
6974 1 1 0 90.23547405947775 21.00790747062504 -1.645832882305725 0 0 0
9879 1 2 0 90.43282067047276 22.61019060159374 -2.1685903384892224 0 0 0
9877 1 2 0 91.57000046402682 20.26335589562389 -2.259351548254437 0 0 0
6973 1 1 0 92.84835921829334 19.44400383965897 -1.656664219634046 0 0 0
9878 1 2 0 94.13796495841171 20.233557815709403 -2.3219412814323848 0 0 0
6978 1 1 0 95.57753643674711 20.396380458877967 -1.5566402390726695 0 0 0
13328 1 2 0 92.82585660566725 19.424000190575 -1.9445000647360466e-06 0 0 0
9883 1 2 0 96.3530209647246 18.938176763409 -1.6179885813830186 0 0 0
6977 1 1 0 97.96183124409978 18.548413518557968 -1.557146370710635 0 0 0
9271 1 2 0 98.91386755845178 19.657674765500204 -2.3139438432090382 0 0 0
9273 1 2 0 96.44232417567476 21.569314422129793 -2.3116454949620913 0 0 0
9270 1 2 0 99.00602689223788 22.35673370187238 -2.15295278597567 0 0 0
6584 1 1 0 97.45528712883231 22.701872458871485 -1.6541306438382817 0 0 0
6583 1 1 0 99.72620548035542 20.951237097717627 -1.6492985631569548 0 0 0
13332 1 2 0 98.50243384256893 18.391610233908345 -3.5915271096231023e-07 0 0 0
9243 1 2 0 7.916382956440157 25.055154309456228 -2.2112839713617394 0 0 0
6568 1 1 0 11.827355501787595 24.078263097304912 -1.6446385771793361 0 0 0
9245 1 2 0 10.411779637799253 24.648428389344474 -2.2588957291300784 0 0 0
6567 1 1 0 9.3219157942373 25.718283260563297 -1.649534162146067 0 0 0
9246 1 2 0 9.604797818094351 27.28343693124276 -2.1614392314660886 0 0 0
9314 1 2 0 12.273839115949338 27.76617408415785 -2.210414872573862 0 0 0
6611 1 1 0 10.809722462543451 28.3218526537911 -1.646988832443342 0 0 0
12922 1 2 0 9.346329909832953 25.73093427178191 -3.2255875833612437e-07 0 0 0
12966 1 2 0 10.827272422566764 28.387829062999764 -6.864260398078479e-08 0 0 0
12923 1 2 0 11.785839999133401 24.012826324579326 7.121048521996829e-07 0 0 0
9247 1 2 0 13.025687869381915 25.082194556069727 -2.167054340058223 0 0 0
6614 1 1 0 13.34131236030679 26.623996778513916 -1.6470615645144686 0 0 0
9318 1 2 0 14.821153126644967 26.91175265452705 -2.2824905518535132 0 0 0
6980 1 1 0 16.289481648195363 27.3108353796022 -1.6514193857007922 0 0 0