LAMMPS data file via write_data, version 2 Aug 2023, timestep = 169, units = metal

15480 atoms
2 atom types

8.077619951386682 196.59600506878988 xlo xhi
6.472979203410628 169.6460298582765 ylo yhi
-100 100 zlo zhi

Masses

1 28.085
2 15.999

Atoms # full

6583 1 1 0 8.832464562837252 7.055645407903617 -1.642211221938133 0 0 0
9258 1 2 0 9.641262948078218 8.348561126488391 -2.2574357563787038 0 0 0
9256 1 2 0 10.312370111791067 10.859316684859824 -2.2312645376588622 0 0 0
6582 1 1 0 10.745813787185455 9.395676123212493 -1.6445213543206383 0 0 0
9259 1 2 0 12.239356371024988 9.11947349908988 -2.258262453609999 0 0 0
13033 1 2 0 8.745769157940396 7.126085449071089 -1.068703426155296e-06 0 0 0
6581 1 1 0 9.404277034916303 12.078402829637938 -1.6439557191080116 0 0 0
13031 1 2 0 9.269827407446686 12.043529256365424 -9.480340283118832e-07 0 0 0
9266 1 2 0 14.456565065631285 7.760694874208794 -2.1483502026788273 0 0 0
9672 1 2 0 18.15068974198673 7.161640945110993 -2.1294222754077716 0 0 0
6587 1 1 0 13.769975326402351 9.204039499666294 -1.6469340821685972 0 0 0
9267 1 2 0 14.457712909846059 10.585482979634845 -2.2466659330152967 0 0 0
9670 1 2 0 18.927068802947375 9.72426983165128 -2.2865177332094677 0 0 0
6851 1 1 0 18.441515219656033 11.164258153023031 -1.6488440948426306 0 0 0
6849 1 1 0 15.457412049799688 11.775623612097965 -1.6457917837440323 0 0 0
9669 1 2 0 16.929145365489752 11.384194398048907 -2.236465987320059 0 0 0
13299 1 2 0 15.373499640772133 11.770378117023027 -3.231913437551865e-07 0 0 0
13301 1 2 0 18.487399225002928 11.148089635331125 -1.469901463062057e-07 0 0 0
13037 1 2 0 13.782971768774685 9.27882895936524 -2.0519543419190584e-07 0 0 0
6852 1 1 0 19.314569260457798 8.255721786104374 -1.6461182615746692 0 0 0
9673 1 2 0 20.859510729042075 7.828081938932219 -2.1513930701580835 0 0 0
9681 1 2 0 23.653945830608695 8.2905124224926 -2.2642053904285837 0 0 0
6857 1 1 0 22.173308544335914 8.706699459828563 -1.6393208317857302 0 0 0
9678 1 2 0 21.79096493270002 10.247158816785578 -2.1364423090658944 0 0 0
6855 1 1 0 22.628080183175655 11.572175329593941 -1.6392592246074948 0 0 0
9679 1 2 0 24.158748390785526 11.352371332820315 -2.2144128561270717 0 0 0
13302 1 2 0 19.312601271907955 8.356740646571708 -2.8729857609125e-07 0 0 0
6866 1 1 0 24.951530157623555 7.4485064603040625 -1.6458775039983164 0 0 0
9694 1 2 0 26.425180067715008 7.930287808126088 -2.246559750741969 0 0 0
6865 1 1 0 27.95059326357986 8.217457186022573 -1.6452009830550207 0 0 0
9695 1 2 0 29.10204695226578 7.14106823116151 -2.179354962684884 0 0 0
9692 1 2 0 28.464931191381112 9.693479791034683 -2.19479270622635 0 0 0
6864 1 1 0 28.17061311276183 11.224951281360093 -1.6423711866800124 0 0 0
9686 1 2 0 26.767102078934375 11.736493282365952 -2.334341325279164 0 0 0
6860 1 1 0 25.390181863551643 12.282657946544647 -1.6422731618937925 0 0 0
6873 1 1 0 30.661903030366624 6.862187244796518 -1.6489461086748565 0 0 0
9705 1 2 0 31.70723750017736 8.051660818418682 -2.2104263460208293 0 0 0
9701 1 2 0 31.2855407856684 10.743618009581525 -2.2691510146140836 0 0 0
6872 1 1 0 32.22816469414341 9.534853547625765 -1.6448358598549666 0 0 0
9706 1 2 0 33.705969577657264 10.03927333785002 -2.1675292821462087 0 0 0
6875 1 1 0 35.15076483904439 10.651703178624196 -1.630081995153412 0 0 0
13323 1 2 0 30.705421700489815 6.852920631698775 -7.268468067805368e-07 0 0 0
13322 1 2 0 32.1969700480505 9.463110091827325 -5.673347800553135e-07 0 0 0
6869 1 1 0 30.892291154363477 12.215228792801113 -1.6410076493935843 0 0 0
13319 1 2 0 31.03883374594107 12.166069471621803 -8.541727112465688e-07 0 0 0
6881 1 1 0 36.605681327494835 7.694923662445341 -1.640123743590782 0 0 0
9719 1 2 0 38.178142789664875 7.7196523329864695 -2.1919701928629256 0 0 0
6880 1 1 0 39.293030947614454 8.798051966356578 -1.6387132933864885 0 0 0
9720 1 2 0 40.77751147909606 8.365160802145752 -2.247097134198862 0 0 0
9711 1 2 0 36.06193707309837 9.244967969233496 -2.109180097301359 0 0 0
9716 1 2 0 38.80563968874929 10.352534993337203 -2.0419385450172496 0 0 0
9717 1 2 0 41.24287855082004 11.022902897583151 -2.3849019534161044 0 0 0
6878 1 1 0 39.87032883899284 11.570417858856887 -1.6461055546179528 0 0 0
13331 1 2 0 36.38726490552846 7.624934609526076 -4.786807895066151e-07 0 0 0
13330 1 2 0 39.35592559640859 8.696988133586075 -2.0582262963288344e-07 0 0 0
6890 1 1 0 41.84786247429375 7.255477645559744 -1.6417272676402332 0 0 0
9733 1 2 0 43.41316287054514 7.463210612274596 -2.1472086273541797 0 0 0
6889 1 1 0 44.43433432636612 8.660428416748402 -1.6399156250823295 0 0 0
9734 1 2 0 45.9241982044091 8.517395744274626 -2.307383638312442 0 0 0
6885 1 1 0 42.61799936675991 10.9141175882189 -1.5085108802373364 0 0 0
9727 1 2 0 43.78199269807085 10.048468686819277 -2.2666556768627704 0 0 0
13339 1 2 0 44.59935073194332 8.667465774780444 -5.256888187275637e-07 0 0 0
9729 1 2 0 45.638239904085516 12.095288439251611 -1.9861451389118523 0 0 0
6895 1 1 0 47.42687417734391 8.365932654613486 -1.6468922855610815 0 0 0
9743 1 2 0 47.992169451951554 6.946797110560565 -2.2252773418109446 0 0 0
9741 1 2 0 48.463522717950895 9.481391182750594 -2.2602637207128082 0 0 0
6894 1 1 0 49.28256692931931 10.764370977453172 -1.6511044207004366 0 0 0
9742 1 2 0 50.845283633127046 10.681114662217743 -2.194842497642002 0 0 0
6896 1 1 0 52.05736357071175 11.678186187628251 -1.6485649797601232 0 0 0
13345 1 2 0 47.387362511695 8.453981962004779 -4.45096616741352e-08 0 0 0
13346 1 2 0 52.1231787589102 11.616774070304384 -2.871655197923057e-07 0 0 0
9737 1 2 0 48.46545379937324 12.07265351125802 -2.293552626632066 0 0 0
9751 1 2 0 53.06862506602864 7.128040397646583 -2.208738304468473 0 0 0
6900 1 1 0 54.53670985757407 7.659534234061543 -1.6482523440776076 0 0 0
9752 1 2 0 55.68499912493995 6.666563569279742 -2.279388376791277 0 0 0
6899 1 1 0 54.95380204985513 10.691264090992009 -1.6472166392385104 0 0 0
9749 1 2 0 54.92914441692233 9.145594743135566 -2.229817709446924 0 0 0
9745 1 2 0 53.555677839290574 11.34831547648182 -2.250804793053678 0 0 0
9750 1 2 0 56.30594218319828 11.460286768046474 -2.2220669698484365 0 0 0
13350 1 2 0 54.5343374802478 7.668950620053949 -1.293496581812279e-07 0 0 0
13349 1 2 0 54.966124448140306 10.71978077267011 -1.8607420309496825e-07 0 0 0
6903 1 1 0 57.70364085214936 12.167115236514327 -1.6498729529973655 0 0 0
13353 1 2 0 57.671539327912456 12.135914335439073 -3.4950608095981e-07 0 0 0
6907 1 1 0 59.42122316129249 7.29773550740583 -1.6366779701099066 0 0 0
9764 1 2 0 60.985394326427944 7.043709318174385 -2.132322591035696 0 0 0
9761 1 2 0 58.99858880407061 8.818599485587436 -2.114773180892347 0 0 0
6906 1 1 0 59.91881763904755 10.12083106089931 -1.6389078558630998 0 0 0
9762 1 2 0 61.44904967140077 9.889048516968801 -2.2358608286491 0 0 0
6911 1 1 0 63.004540821836216 9.758872483446222 -1.6473886185464506 0 0 0
9757 1 2 0 59.07720177156087 11.420614245674516 -2.228595279586271 0 0 0
13361 1 2 0 62.973359904300295 9.696753374931829 -1.7073932679179655e-07 0 0 0
9770 1 2 0 63.96271061839315 8.497781091574529 -2.187311847820264 0 0 0
6915 1 1 0 64.54547744812866 7.017663622727041 -1.6479168360417322 0 0 0
9777 1 2 0 66.05373909505121 6.551283543533991 -2.208195561279025 0 0 0
9786 1 2 0 68.76659184932146 6.830435984796513 -2.2200288719489363 0 0 0
9769 1 2 0 63.68226718053643 11.14538937165114 -2.220664892359269 0 0 0
9780 1 2 0 68.38223338530246 11.342828354631413 -2.2435710346778492 0 0 0
13365 1 2 0 64.6148491675978 7.062055026463651 -9.879653375567049e-08 0 0 0
6921 1 1 0 70.04265185973162 7.718452874378687 -1.6453296165636786 0 0 0
9787 1 2 0 71.52533888735843 7.267801901344744 -2.2179901199020153 0 0 0
6928 1 1 0 72.98036585810445 6.7161434983405455 -1.6470873729919888 0 1 0
9796 1 2 0 74.21998925225923 7.722291195208534 -2.1786557745665593 0 0 0
6920 1 1 0 69.82069179086947 10.765135460329985 -1.6526162355071226 0 0 0
9784 1 2 0 69.83716644861721 9.23582731301319 -2.2402013254583766 0 0 0
9785 1 2 0 71.14435378136332 11.57362032270877 -2.267870078133575 0 0 0
9790 1 2 0 73.84673632521944 11.309003230020098 -1.7509398750215959 0 0 0
13371 1 2 0 70.03396977057983 7.65260627859821 -3.0689976427870043e-07 0 0 0
6923 1 1 0 72.4993854984406 12.23397883165534 -1.5838030656469935 0 0 0
6927 1 1 0 75.60095106295336 8.553874573423885 -1.653418898234587 0 0 0
9797 1 2 0 76.89561275155694 7.669342172199955 -2.2090603885045677 0 0 0
6935 1 1 0 78.11630136793158 6.7178111140340135 -1.6466725576272858 0 0 0
9808 1 2 0 79.60505108249042 7.177323421386906 -2.2309655751688764 0 0 0
9794 1 2 0 75.95315621456668 10.107852833556368 -2.216481077205648 0 0 0
6926 1 1 0 75.4829460620528 11.60942010905603 -1.5811355008884367 0 0 0
13377 1 2 0 75.53815138325544 8.587690716069165 -1.763599327566241e-07 0 0 0
13376 1 2 0 75.97215570786081 11.631621009763135 -5.517711086800084e-07 0 0 0
6934 1 1 0 80.69652653437997 8.265265125363598 -1.6520904202285445 0 0 0
9809 1 2 0 82.227178269443 7.996114657539984 -2.2416527709732366 0 0 0
6940 1 1 0 83.759782598114 8.196330662313958 -1.6500388765032343 0 0 0
9818 1 2 0 84.59739868832773 6.896760548504553 -2.213204002555971 0 0 0
9805 1 2 0 80.18659616906119 9.749501810984597 -2.2229378134205944 0 0 0
9816 1 2 0 84.70808196346033 9.395265794192209 -2.3095126709424005 0 0 0
6932 1 1 0 80.93055854846213 11.083027354808937 -1.611798607869978 0 0 0
9806 1 2 0 82.54875454447806 10.908336537699782 -2.033767000979876 0 0 0
9812 1 2 0 85.09608916842126 11.854189974308785 -1.4629125938608933 0 0 0
13384 1 2 0 80.74066130495301 8.205894029680497 -3.272670168408943e-07 0 0 0
13390 1 2 0 83.65998826054151 8.330168071253365 -6.428641370602861e-07 0 0 0
6936 1 1 0 83.47957476812972 12.16688307855035 -1.5107002521764503 0 0 0
9827 1 2 0 89.9849630666582 6.516443375776151 -2.256890947318635 0 0 0
6939 1 1 0 85.78643757731105 10.34364258779774 -1.5176448265165765 0 0 0
9817 1 2 0 87.22940345495151 10.573639312993393 -2.2695037872664856 0 0 0
9823 1 2 0 89.75953800251581 11.128690569833227 -2.2491128277315675 0 0 0
6946 1 1 0 91.14807653228719 10.470397006069751 -1.6468510583630094 0 0 0
6944 1 1 0 88.32999161660254 11.666713377387202 -1.6567501378857024 0 0 0
9829 1 2 0 87.44860359549881 6.504963324563246 -2.142180522668482 0 1 0
13396 1 2 0 91.14333366922452 10.434480696547855 6.671595965935274e-07 0 0 0
13389 1 2 0 86.08502564248946 9.744568648108206 -3.419691545478253e-08 0 0 0
6947 1 1 0 91.27289213681726 7.353307341305084 -1.6481292550830768 0 0 0
9828 1 2 0 92.54799668262265 6.4901234207616065 -2.2320606649096915 0 0 0
6955 1 1 0 96.05251985780012 7.539100468462059 -1.6480060262136127 0 0 0
9825 1 2 0 91.32980466710718 8.917144065684097 -2.2180483699070237 0 0 0
6954 1 1 0 95.88331826256788 10.538222128953706 -1.6478730384990778 0 0 0
9839 1 2 0 95.52540203402289 9.012792422877723 -2.2140727174929475 0 0 0
9826 1 2 0 92.30647389902278 11.502376777893648 -2.212261714785117 0 0 0
9833 1 2 0 94.89415064166238 11.73745392393793 -2.2179338448982153 0 0 0
13405 1 2 0 96.01449471748545 7.580753299745921 -5.591187887798294e-07 0 0 0
9841 1 2 0 97.56576625842807 7.175126974794288 -2.2223286650802345 0 0 0
6474 1 1 0 101.14029374620638 7.366431973406149 -1.6437345882602479 0 0 0
9272 1 2 0 97.39829180165242 10.866208024131646 -2.2206224924010742 0 0 0
6473 1 1 0 101.06945401716919 10.283454114791404 -1.6422395719679992 0 0 0
9073 1 2 0 100.65480933744304 8.817527786115912 -2.255423406427017 0 0 0
9074 1 2 0 100.01935054503868 11.397653022059846 -2.2554993455922707 0 0 0
6590 1 1 0 98.56244933058633 11.876169027151125 -1.6453467704155726 0 0 0
13040 1 2 0 98.57015362342504 11.866231545456992 -2.804856220315641e-07 0 0 0
12924 1 2 0 101.13931685363166 7.378872741953431 -8.07288229696783e-07 0 0 0
9257 1 2 0 10.112667455566536 13.425634257428207 -2.274776594525594 0 0 0
9261 1 2 0 8.409909861836708 15.619761732151048 -2.205343593501079 0 0 0
6586 1 1 0 11.336559459918668 14.20710271665786 -1.5211968383144836 0 0 0
9263 1 2 0 11.008597237952445 15.817020108859255 -1.4822868684490669 0 0 0
9265 1 2 0 12.749959855862187 13.99609190244042 -2.3140367698954787 0 0 0
6585 1 1 0 9.546832489187015 16.602249060876083 -1.517312959224905 0 0 0
13035 1 2 0 8.995885274468206 16.98647835358253 -6.940439760711021e-07 0 0 0
9264 1 2 0 9.933527082848345 18.024418785342466 -2.270370183016802 0 0 0
9668 1 2 0 15.21313262690463 13.328849064924366 -2.1938332635701365 0 0 0
6850 1 1 0 14.184311053172637 14.50715250481371 -1.652560413580601 0 0 0
9457 1 2 0 14.454450857443465 16.047901665937882 -2.2090027783992845 0 0 0
6709 1 1 0 14.08882504932075 17.575004801932174 -1.6495199658377402 0 0 0
13159 1 2 0 14.065206746389567 17.573250063196962 -1.626728391065576e-06 0 0 0
9671 1 2 0 19.30545403668923 12.440651142019128 -2.238930530446604 0 0 0
9677 1 2 0 21.923925059665805 12.957794594251272 -2.198662149353776 0 0 0
6856 1 1 0 20.442191892139373 13.472711846541529 -1.646650114181933 0 0 0
9680 1 2 0 20.18400727949725 14.985662943769402 -2.2499195370216523 0 0 0
6862 1 1 0 20.625626764038852 16.458048658816935 -1.6476768618548774 0 0 0
9689 1 2 0 22.087347140517767 16.89103034747703 -2.278318766756381 0 0 0
9687 1 2 0 24.684930605293914 16.396242615257314 -2.2857275973221425 0 0 0
13306 1 2 0 20.37109181975396 13.503783202381353 -8.207128132078677e-07 0 0 0
13312 1 2 0 20.669118243281634 16.43270909527182 -2.6563895949840028e-08 0 0 0
6863 1 1 0 23.51855781228383 17.362640348633974 -1.6429510707419035 0 0 0
9690 1 2 0 19.54511108562095 17.567735915312632 -2.201599856773803 0 0 0
9693 1 2 0 29.300725418299887 12.33507884770706 -2.108589843902809 0 0 0
6861 1 1 0 25.62694962921645 15.226375051190951 -1.6424905994372767 0 0 0
9685 1 2 0 25.013517840364585 13.797974833002336 -2.162566319023255 0 0 0
9688 1 2 0 27.1349813988282 15.356151931913864 -2.2872355954085326 0 0 0
9702 1 2 0 29.737580462676025 15.044585680864577 -2.2125889714309936 0 0 0
6871 1 1 0 28.511869825458263 15.96182685477033 -1.641007750113349 0 0 0
13321 1 2 0 28.47802406723711 15.930420027826278 -4.579594307894724e-08 0 0 0
9704 1 2 0 28.803074385889236 17.49044745261923 -2.1851102797529913 0 0 0
9708 1 2 0 35.172708554056044 12.34790566221432 -2.0632025647374586 0 0 0
6870 1 1 0 31.28863749180054 15.033441982560042 -1.6463898130955212 0 0 0
9700 1 2 0 31.80132974944615 13.524522328626231 -2.1710829113806205 0 0 0
6874 1 1 0 35.664850038719564 14.024739074661781 -1.6264433966578258 0 0 0
9709 1 2 0 35.445702203878916 15.783370314198361 -1.9801984260016074 0 0 0
9703 1 2 0 32.04542754391855 16.368220560537274 -2.2716300542515944 0 0 0
13324 1 2 0 35.344679032472634 13.991672856756795 -5.42265809177869e-07 0 0 0
6876 1 1 0 32.46051161876193 17.856753161098137 -1.6340313687109607 0 0 0
6877 1 1 0 35.53002092806549 17.521392192867093 -1.6011880405550312 0 0 0
9712 1 2 0 34.0378233705289 18.076365047794447 -2.05754755309633 0 0 0
9715 1 2 0 39.57852316510502 13.065031137309905 -2.2652232105209666 0 0 0
9710 1 2 0 37.15242403984031 13.858184551330991 -2.2983951923805357 0 0 0
6879 1 1 0 38.6042364623693 14.251527534801985 -1.6494614412394966 0 0 0
9718 1 2 0 38.96409432027263 15.78065350731181 -2.153835045004801 0 0 0
6888 1 1 0 40.287579890920874 16.641692848653697 -1.6474868315971785 0 0 0
13329 1 2 0 38.547966388520805 14.201363261212808 -4.035105263157035e-07 0 0 0
13327 1 2 0 35.95087113505487 17.463242474550402 -2.5519707947810785e-07 0 0 0
9726 1 2 0 43.04792228458493 12.48479492836478 -1.3766001896915372 0 0 0
6886 1 1 0 44.488608707831744 13.23196784394555 -1.5012122575637081 0 0 0
6887 1 1 0 43.06903893667411 15.693218273732434 -1.631068714031472 0 0 0
9728 1 2 0 44.05596215801542 14.585149967159053 -2.3705628785551496 0 0 0
9730 1 2 0 41.55125878497054 15.766726407258718 -2.2686100624670997 0 0 0
9731 1 2 0 43.705693652944994 17.17211703421714 -1.9545986590303175 0 0 0
9738 1 2 0 46.429834509113334 16.907524492191293 -2.300501720731212 0 0 0
9736 1 2 0 46.78171435078689 14.25276950451986 -2.2481205821469636 0 0 0
6893 1 1 0 45.196222869103764 17.765380277405132 -1.6180483506434005 0 0 0
6891 1 1 0 47.1335275537388 12.75904842897801 -1.6124948286668055 0 0 0
9744 1 2 0 51.5982512768128 13.159843985860274 -2.235821589312904 0 0 0
6892 1 1 0 47.31644505832614 15.692649913148566 -1.6452021917076365 0 0 0
9746 1 2 0 51.41639194168942 15.846732094550154 -2.2742755679781412 0 0 0
9739 1 2 0 48.83146846132476 15.622622893563243 -2.2596070734301774 0 0 0
6898 1 1 0 50.048237840626854 16.50551092976766 -1.62899350055426 0 0 0
6897 1 1 0 52.23151453180408 14.550605733934121 -1.628507032827123 0 0 0
13342 1 2 0 47.30658950727923 15.781586259167739 -4.0927581314680386e-07 0 0 0
13341 1 2 0 47.494192554131416 12.794365127081383 -8.10884159356899e-08 0 0 0
13347 1 2 0 52.017326584139894 14.56676883581686 -9.911487523991843e-07 0 0 0
9748 1 2 0 49.62983575927622 18.038501550046114 -2.0634711242409556 0 0 0
9756 1 2 0 57.82019706511563 13.71432901765714 -2.2185038591418467 0 0 0
9747 1 2 0 53.86179530658433 14.521469853747655 -1.9609619346541103 0 0 0
9758 1 2 0 56.20869171917429 15.841134640696774 -2.280054627980332 0 0 0
6904 1 1 0 57.62774642512346 15.258262586917139 -1.6495869289924732 0 0 0
6905 1 1 0 54.705597333155566 15.919034692172833 -1.6315786182398981 0 0 0
9760 1 2 0 53.73984886066429 17.05181696696021 -2.3689680003359297 0 0 0
13354 1 2 0 57.61277920118729 15.23713551913547 -3.272678128317188e-07 0 0 0
13355 1 2 0 54.84506498200287 16.199105044487784 -2.1020511551145206e-07 0 0 0
9759 1 2 0 58.786539462225115 16.291902046543314 -2.2118700315290742 0 0 0
9773 1 2 0 61.31683258419912 15.684462516746411 -2.20645588019352 0 0 0
6913 1 1 0 62.81712995844454 15.265857767606088 -1.6419283034417507 0 0 0
6914 1 1 0 60.24853520665863 16.83683337388614 -1.6489359436877227 0 0 0
9771 1 2 0 63.40165354395972 13.823569961577142 -2.23252089885611 0 0 0
6912 1 1 0 64.30602113946709 12.549730133542141 -1.648562809861523 0 0 0
9772 1 2 0 65.8504862299531 12.522831618097342 -2.2531058217583975 0 0 0
6917 1 1 0 67.37983560059375 12.500493407152092 -1.6365796093367502 0 0 0
9779 1 2 0 68.10355800246532 13.894029986279733 -2.1388799798893134 0 0 0
9781 1 2 0 66.25149394163002 15.868444537772032 -2.26958368851426 0 0 0
6918 1 1 0 67.68983402411983 15.397339418498078 -1.6381875144953344 0 0 0
9782 1 2 0 68.84050081402785 16.383937314812737 -2.251095834360248 0 0 0
9774 1 2 0 63.727438132332175 16.54566917961874 -2.165485951330872 0 0 0
6919 1 1 0 65.21901893933031 16.993139740331426 -1.6453351199967838 0 0 0
13367 1 2 0 67.29304575129362 12.351308865009418 -3.464361818116123e-07 0 0 0
13369 1 2 0 65.27122742110616 17.035408358517966 -5.127145649767921e-07 0 0 0
9789 1 2 0 73.01048893375855 13.628156552294795 -2.315693038225198 0 0 0
9791 1 2 0 71.43001464490426 15.571114074420828 -2.278610133687157 0 0 0
6924 1 1 0 72.88960857547374 15.125075350118768 -1.6549282034676178 0 0 0
6925 1 1 0 70.34292440685385 16.60006428141285 -1.638519928314396 0 0 0
9792 1 2 0 74.10830457311147 16.09640285090721 -2.2421555281499317 0 0 0
9793 1 2 0 70.75612576398359 18.067370591317857 -2.2529243300674846 0 0 0
6930 1 1 0 74.4495194307697 17.610819325819396 -1.6383117257133855 0 0 0
13380 1 2 0 74.3532193276231 17.45132590574367 -2.629641784974317e-07 0 0 0
9795 1 2 0 75.991456845842 13.131912403878086 -2.1680245648938423 0 0 0
6929 1 1 0 77.00344223137243 14.430663785281775 -1.6200795080391885 0 0 0
9800 1 2 0 78.44116748543351 13.82360106546974 -2.1174657304887985 0 0 0
9799 1 2 0 77.21109406094818 16.051837451158445 -2.144074954153129 0 0 0
6933 1 1 0 80.00164634145368 13.914299267139212 -1.6419288273518453 0 0 0
13379 1 2 0 76.67843684851971 14.547483768924911 1.867637438613647e-08 0 0 0
6931 1 1 0 77.38792217607214 17.670202771666673 -1.614400692105785 0 0 0
9804 1 2 0 80.54854232860757 12.510232152703056 -2.3217066096755636 0 0 0
9807 1 2 0 80.77069572966975 15.23559878395912 -2.279317756441731 0 0 0
9811 1 2 0 83.31784094298511 13.589020660675615 -2.32374192361134 0 0 0
6937 1 1 0 84.21909782800185 14.82698788232046 -1.658524056203433 0 0 0
9813 1 2 0 83.39892405278667 16.18122736312017 -2.1252635867200818 0 0 0
6938 1 1 0 81.80887312092342 16.35510150461782 -1.643146414660121 0 0 0
9815 1 2 0 81.35210507510729 17.83699154500145 -2.1885537069182797 0 0 0
9822 1 2 0 88.01285867556831 13.193620721352815 -2.231477572204852 0 0 0
9814 1 2 0 85.70918508013865 14.689323770115605 -2.317605896126624 0 0 0
6945 1 1 0 87.20891291747166 14.513838311538125 -1.6405022875306456 0 0 0
9824 1 2 0 87.98550169256096 15.880774685924708 -2.117184609035716 0 0 0
13403 1 2 0 91.01058561426387 17.532158260514905 -1.6954628041697104e-07 0 0 0
6952 1 1 0 87.94805610063838 17.466772194117343 -1.6373159154214512 0 0 0
9836 1 2 0 89.49565972607051 17.87767892914614 -2.1881305113643075 0 0 0
13402 1 2 0 87.92643380208764 17.675424034431195 -3.7497002937905564e-07 0 0 0
6953 1 1 0 91.08262611972886 17.685226340599183 -1.6419792762319563 0 0 0
6950 1 1 0 93.51945248900178 12.477284897032758 -1.6462940102059709 0 0 0
6951 1 1 0 93.47566526121598 15.618571280636992 -1.6499569591167442 0 0 0
9832 1 2 0 93.39137690840496 14.039373544352737 -2.2105004633957646 0 0 0
9834 1 2 0 92.11223866007427 16.4538062018556 -2.1825925952923093 0 0 0
9835 1 2 0 94.94003799450662 16.255454930448504 -2.1843104936012536 0 0 0
6957 1 1 0 96.43543465397984 16.788032705634464 -1.6479365764116949 0 0 0
13400 1 2 0 93.50912915370826 12.528018509930025 -4.3676833286156485e-07 0 0 0
9271 1 2 0 98.26962000393004 13.398938424554276 -2.19233424980559 0 0 0
6591 1 1 0 98.8589727618627 14.843199415096018 -1.6438798549075069 0 0 0
9273 1 2 0 97.74839089013098 15.930052967057822 -2.225611281571668 0 0 0
9069 1 2 0 100.4284693913474 14.994200669063188 -2.2095973203899986 0 0 0
6470 1 1 0 101.95742151588868 14.633166494052345 -1.6462704865952258 0 0 0
12920 1 2 0 101.90718526913112 14.584842265956548 -3.138424485973939e-07 0 0 0
9362 1 2 0 12.670497508951406 18.207562912815394 -2.2448826229640444 0 0 0
6650 1 1 0 11.261397176949718 18.84781238977028 -1.6552198788251007 0 0 0
9360 1 2 0 11.039572787376981 20.41403578525498 -2.1538273883358823 0 0 0
6649 1 1 0 9.80390836790202 21.410535532105005 -1.647725139902067 0 0 0
9356 1 2 0 8.370366980839183 20.771581048621208 -2.1970879141134376 0 0 0
13100 1 2 0 11.299200091370013 18.76752956160687 -4.946965503696998e-07 0 0 0
9361 1 2 0 10.118588509863702 22.935686985439123 -2.253843802972349 0 0 0
9448 1 2 0 12.66468024493861 23.791904167416547 -2.1023662238835787 0 0 0
6710 1 1 0 16.278595969300298 19.702943434069297 -1.6447793681618241 0 0 0
9456 1 2 0 15.286657787723325 18.542744957263654 -2.251605903943458 0 0 0
9459 1 2 0 17.789119297479854 19.48073245138064 -2.2631975365113015 0 0 0
9458 1 2 0 15.785270316364757 21.189800235058673 -2.174344007571846 0 0 0
6711 1 1 0 16.27888917745178 22.676447933834613 -1.647955593175209 0 0 0
13160 1 2 0 16.299018749696938 19.630385036511175 -9.083188956489626e-08 0 0 0
13161 1 2 0 16.2903364339164 22.713822031343216 -8.256077279973049e-07 0 0 0
9454 1 2 0 15.25454392940773 23.77766670665898 -2.3001373608847118 0 0 0
9460 1 2 0 17.75284081875276 23.083386545932857 -2.2559168252073323 0 0 0
7023 1 1 0 19.096413280463654 23.80979740134612 -1.6439828280838333 0 0 0
6964 1 1 0 19.26021513671105 19.096123552545595 -1.6474753380725267 0 0 0
9853 1 2 0 20.394624772486388 20.151804490603855 -2.232176083583339 0 0 0
9691 1 2 0 23.893604488692816 18.891148795915573 -2.1541694253706307 0 0 0
7022 1 1 0 21.08808476623519 21.534543362798694 -1.6459560032699392 0 0 0
9936 1 2 0 22.608226490765777 21.637746809264243 -2.2667471707999147 0 0 0
7024 1 1 0 24.002341495751015 22.252126604697647 -1.6419891291113504 0 0 0
9935 1 2 0 20.358259090847994 22.907573573072025 -2.1923422403181982 0 0 0
9938 1 2 0 24.346038053742383 23.73128975735287 -2.2553026822643427 0 0 0
9884 1 2 0 25.209879816693107 21.240323734228234 -2.141513321398039 0 0 0
6985 1 1 0 25.261419411741862 19.675590591461642 -1.6404650659211726 0 0 0
9882 1 2 0 26.618014583718363 19.016311620541565 -2.3042986612335365 0 0 0
6984 1 1 0 28.120305921129766 18.886962814155677 -1.6432698584742358 0 0 0
9883 1 2 0 29.087794604342427 20.099474786705542 -2.1791715223641894 0 0 0
13435 1 2 0 25.337080673663174 19.571142695691652 -4.298156994264402e-07 0 0 0
6986 1 1 0 30.63110301944878 20.38106394996303 -1.6461976798010158 0 0 0
9713 1 2 0 31.642213993905077 19.183124903702012 -2.227592554380105 0 0 0
9885 1 2 0 30.894490272490724 21.898962816842953 -2.238813544265248 0 0 0
13436 1 2 0 30.745243649794777 20.38104583748587 -6.020062526557246e-07 0 0 0
7041 1 1 0 30.92466898563356 23.451639841884123 -1.6474836402987743 0 0 0
9962 1 2 0 32.45818733560851 23.885155799624158 -2.142953242579249 0 0 0
9732 1 2 0 40.192087668998084 18.1615954590187 -2.2680704369442455 0 0 0
9714 1 2 0 36.39730176671698 19.00748342318295 -2.0787347376844765 0 0 0
9891 1 2 0 38.666420584268565 20.393970355756366 -2.175613007743847 0 0 0
6991 1 1 0 37.09900109143174 20.55244112160885 -1.6375643308111307 0 0 0
6990 1 1 0 40.06863769233243 19.69410056421369 -1.6476504692186313 0 0 0
9893 1 2 0 36.825194243428435 22.24777191713155 -2.0885689011849315 0 0 0
7044 1 1 0 36.75268502014252 23.93129420415233 -1.6498915859570007 0 0 0
9892 1 2 0 41.35646463709195 20.54933526912321 -2.24269270601496 0 0 0
9740 1 2 0 45.14508859208175 19.233870522249628 -2.313186804011591 0 0 0
6992 1 1 0 45.23337566279787 20.732932699847318 -1.65504962486367 0 0 0
6993 1 1 0 42.37774128472266 21.70596964950775 -1.6450881203654157 0 0 0
9894 1 2 0 43.92302204783587 21.558724625810047 -2.2323864197888623 0 0 0
9895 1 2 0 46.65556276860428 21.281449997693052 -2.3012174295339403 0 0 0
13442 1 2 0 45.19770922476193 20.80774649557979 -3.455363640116235e-07 0 0 0
9896 1 2 0 41.82395823869693 23.165998339617396 -2.170729327976117 0 0 0
9897 1 2 0 49.4210106846559 20.645088609692568 -2.270384241726548 0 0 0
6995 1 1 0 50.37189303944009 19.44519994039686 -1.620266583418956 0 0 0
9898 1 2 0 51.91402619200461 19.218754315308757 -2.240034723683637 0 0 0
6996 1 1 0 48.11669037589145 21.382886314258972 -1.5270710183031284 0 0 0
13446 1 2 0 47.98050103763469 20.73866438528697 -2.485527232833187e-07 0 0 0
9899 1 2 0 48.39182980887208 22.980097209195524 -1.4894099615765812 0 0 0
9980 1 2 0 51.85754778303732 23.516090071867367 -2.2619360377149085 0 0 0
6998 1 1 0 53.081345744208896 18.292799180426307 -1.5025065971754652 0 0 0
9901 1 2 0 54.45394206807554 19.14787149127207 -1.2937334981737656 0 0 0
9904 1 2 0 56.251711436131075 20.605294434610865 -2.351767959999637 0 0 0
7000 1 1 0 54.84635198149849 20.696276020917896 -1.4900377956926525 0 0 0
9905 1 2 0 53.54333793534778 21.4984317725026 -2.122928172805596 0 0 0
7001 1 1 0 57.60647180005916 21.193071459690067 -1.5850913778839824 0 0 0
9906 1 2 0 57.4364290585741 22.824315979652095 -1.7784669318473294 0 0 0
7054 1 1 0 53.332589059371976 23.079197930271167 -1.6346910273067448 0 0 0
9981 1 2 0 54.70674915735666 23.7931632661899 -2.255859171444673 0 0 0
7056 1 1 0 56.218117268818254 23.94070245992926 -1.5873877946473096 0 0 0
13504 1 2 0 53.23794522306835 23.321762100912295 -7.123065753509379e-08 0 0 0
13451 1 2 0 57.73928984649811 20.72761660605866 -2.168752644081921e-07 0 0 0
9775 1 2 0 60.54047591210991 18.386729726461787 -2.2026553194381484 0 0 0
9902 1 2 0 58.92993524702014 20.543891498799237 -2.308327715389153 0 0 0
6999 1 1 0 60.343282515607456 19.956718867575557 -1.6528546133108237 0 0 0
9903 1 2 0 61.42848120871792 21.088307791588885 -2.210723996906037 0 0 0
7005 1 1 0 62.883752208966676 21.648983413743927 -1.6450845619218089 0 0 0
9912 1 2 0 63.47785860066974 23.09799849482951 -2.2183283331595547 0 0 0
9783 1 2 0 65.61035200329896 18.464258737553774 -2.268237405852308 0 0 0
9910 1 2 0 63.883303765791226 20.46646786429777 -2.2057095300974217 0 0 0
7004 1 1 0 65.33098242092622 19.963817834543946 -1.6450354615156848 0 0 0
9911 1 2 0 66.43575108423717 21.037719489044733 -2.2311569560635505 0 0 0
7007 1 1 0 67.95640120804988 21.205724650441674 -1.65139712045285 0 0 0
9915 1 2 0 68.58454922621907 22.599565189852648 -2.223661089478031 0 0 0
9913 1 2 0 68.84933620640082 19.975237969271756 -2.313345102528863 0 0 0
13454 1 2 0 65.37255658406647 19.9177998650448 -2.403908243458182e-09 0 0 0
7006 1 1 0 70.15381865333649 19.395750265840324 -1.5178432967722784 0 0 0
9914 1 2 0 71.40463632802445 20.457701996956164 -1.4577044938236872 0 0 0
9802 1 2 0 73.3885644915076 18.710692202761606 -2.281847199426986 0 0 0
7008 1 1 0 73.0356573229918 20.120784171983512 -1.5210700666336368 0 0 0
9916 1 2 0 73.57331192112188 21.484697830091033 -2.2745640684976527 0 0 0
7067 1 1 0 72.7774207463057 22.811100942405858 -1.654690942212121 0 0 0
7062 1 1 0 69.86369087003412 23.46634991469133 -1.6494528412813685 0 0 0
9993 1 2 0 71.28467488512858 23.005021143843106 -2.318334072882727 0 0 0
13517 1 2 0 72.68981303129665 22.708664298626445 -7.053674272721403e-08 0 0 0
9801 1 2 0 75.9030227372774 18.254366958026985 -2.0602330042944463 0 0 0
9803 1 2 0 78.38068480713744 18.94434551282296 -2.1627295687285533 0 0 0
7010 1 1 0 79.12483758354912 20.400216823594445 -1.650002033118376 0 0 0
9919 1 2 0 78.3876612377169 21.886043370626478 -2.16023016653737 0 0 0
7068 1 1 0 77.76674407470543 23.40251229885541 -1.6436297312518895 0 0 0
10001 1 2 0 76.24737687882933 23.923642993515585 -2.190374157480496 0 0 0
9917 1 2 0 80.76521266021238 20.3345149531249 -2.1199147452681646 0 0 0
7009 1 1 0 82.00909546688727 19.269102620979453 -1.64267110361317 0 0 0
9918 1 2 0 83.63519651099882 19.268308832480212 -2.1602197741915785 0 0 0
7012 1 1 0 85.26314588673311 19.26908676851725 -1.6413733271446733 0 0 0
9925 1 2 0 85.30231872264018 23.308771965153785 -2.223122743028438 0 0 0
13462 1 2 0 85.21532698953729 19.086736896880463 -4.438393828241535e-07 0 0 0
13459 1 2 0 82.10672204605909 19.393152895866315 -1.3465671517109032e-07 0 0 0
9837 1 2 0 86.51193334471213 18.213978126480654 -2.171106660121994 0 0 0