ITEM: TIMESTEP
1953
ITEM: NUMBER OF ATOMS
15348
ITEM: BOX BOUNDS pp pp pp
0.0000000000000000e+00 2.0359238579182315e+02
0.0000000000000000e+00 1.7567192051801638e+02
-1.0000000000000000e+02 1.0000000000000000e+02
ITEM: ATOMS id type element x y z v_uncoordination
1 1 Si 184.096 40.4307 1.63218 0
2 1 Si 183.393 37.0592 1.62098 0
3 1 Si 182.219 43.1896 1.63669 0
4 1 Si 179.048 42.7041 1.63058 0
5 1 Si 180.838 34.8959 1.63115 0
6 1 Si 177.852 36.3791 1.6327 0
7 1 Si 177.447 39.7934 1.6119 0
8 1 Si 187.172 41.6407 1.63228 0
9 1 Si 185.707 34.7473 1.61904 0
10 1 Si 188.718 35.7378 1.64235 0
11 1 Si 189.102 39.007 1.63538 0
12 1 Si 183.125 46.4148 1.62474 0
13 1 Si 188.236 44.8979 1.64312 0
14 1 Si 186.183 47.4734 1.62474 0
15 1 Si 178.258 48.7491 1.6335 0
16 1 Si 177.418 45.5711 1.61215 0
17 1 Si 181.439 49.2494 1.64848 0
18 1 Si 176.062 51.2199 1.63447 0
19 1 Si 172.897 49.9758 1.60937 0
20 1 Si 174.391 44.5738 1.62127 0
21 1 Si 172.06 46.7961 1.62341 0
22 1 Si 177.319 54.3681 1.61843 0
23 1 Si 183.133 52.0678 1.58982 0
24 1 Si 183.213 55.4034 1.62214 0
25 1 Si 180.108 56.2767 1.63088 0
26 1 Si 169.822 51.1357 1.62735 0
27 1 Si 169.506 54.3057 1.63222 0
28 1 Si 171.851 56.564 1.6099 0
29 1 Si 175.049 56.632 1.62795 0
30 1 Si 109.406 2.42818 1.6099 0
31 1 Si 106.494 3.9236 1.61797 0
32 1 Si 111.428 5.10207 1.6309 0
33 1 Si 106.54 7.17475 1.61249 0
34 1 Si 109.712 7.83837 1.61666 0
35 1 Si 103.831 2.13029 1.62977 0
36 1 Si 103.924 174.472 1.62273 0
37 1 Si 109.355 174.696 1.62232 0
38 1 Si 106.647 172.499 1.6331 0
39 1 Si 100.845 3.5053 1.59535 0
40 1 Si 99.2176 0.835661 1.61125 0
41 1 Si 100.719 173.712 1.61087 0
42 1 Si 116.475 3.35121 1.64995 0
43 1 Si 114.64 5.97796 1.62892 0
44 1 Si 114.922 0.414015 1.63938 0
45 1 Si 112.463 173.813 1.64163 0
46 1 Si 119.716 4.03875 1.61246 0
47 1 Si 121.697 6.64438 1.62433 0
48 1 Si 116.275 8.96138 1.62517 0
49 1 Si 119.667 9.27718 1.6348 0
50 1 Si 121.803 1.61789 1.62396 0
51 1 Si 120.278 174.537 1.62889 0
52 1 Si 117.235 174.074 1.62998 0
53 1 Si 124.93 2.47153 1.61742 0
54 1 Si 125.021 5.79353 1.62968 0
55 1 Si 127.159 0.053888 1.65068 0
56 1 Si 123.615 170.731 1.6348 0
57 1 Si 120.621 171.39 1.62562 0
58 1 Si 126.177 172.636 1.61009 0
59 1 Si 132.167 3.12857 1.63143 0
60 1 Si 131.356 6.44141 1.63127 0
61 1 Si 130.444 0.35111 1.62999 0
62 1 Si 127.996 7.61757 1.62474 0
63 1 Si 135.241 1.93036 1.6186 0
64 1 Si 137.817 3.81559 1.63877 0
65 1 Si 137.232 7.02789 1.61851 0
66 1 Si 134.238 8.429 1.62582 0
67 1 Si 135.659 174.35 1.63015 0
68 1 Si 132.55 173.461 1.62762 0
69 1 Si 140.696 2.23389 1.63486 0
70 1 Si 143.043 4.38462 1.60434 0
71 1 Si 142.557 7.48403 1.60502 0
72 1 Si 139.827 8.96072 1.6246 0
73 1 Si 141.152 174.634 1.61592 0
74 1 Si 138.484 172.571 1.62352 0
75 1 Si 145.747 5.96559 1.63505 0
76 1 Si 148.556 2.37643 1.60323 0
77 1 Si 147.045 175.146 1.6288 0
78 1 Si 148.809 5.62852 1.62931 0
79 1 Si 144.215 173.397 1.64113 0
80 1 Si 145.243 9.09701 1.58318 0
81 1 Si 151.737 2.35207 1.61405 0
82 1 Si 152.614 175.058 1.6381 0
83 1 Si 149.835 173.574 1.62449 0
84 1 Si 154.039 4.45714 1.62756 0
85 1 Si 153.79 7.6082 1.60479 0
86 1 Si 150.699 8.34549 1.64611 0
87 1 Si 157.083 3.65503 1.6306 0
88 1 Si 157.961 0.588931 1.62397 0
89 1 Si 155.628 174.094 1.6498 0
90 1 Si 163.043 2.83363 1.62919 0
91 1 Si 162.131 5.94621 1.65091 0
92 1 Si 161.116 0.160453 1.63422 0
93 1 Si 158.913 6.2613 1.62954 0
94 1 Si 166.169 2.09606 1.61941 0
95 1 Si 168.768 4.18047 1.64234 0
96 1 Si 167.539 7.29228 1.61746 0
97 1 Si 164.358 8.39089 1.62542 0
98 1 Si 165.374 174.595 1.62552 0
99 1 Si 162.483 172.913 1.62595 0
100 1 Si 172.179 3.51026 1.61851 0
101 1 Si 174.563 5.8694 1.62237 0
102 1 Si 173.143 8.76473 1.63924 0
103 1 Si 169.911 9.45211 1.63631 0
104 1 Si 173.668 0.484619 1.62666 0
105 1 Si 168.087 173.056 1.63001 0
106 1 Si 171.269 173.875 1.6445 0
107 1 Si 177.98 5.69553 1.64809 0
108 1 Si 179.348 2.65062 1.62829 0
109 1 Si 177.185 175.591 1.63068 0
110 1 Si 180.107 8.38293 1.63472 0
111 1 Si 178.629 11.2714 1.63656 0
112 1 Si 175.451 10.9727 1.62488 0
113 1 Si 184.858 5.45949 1.6256 0
114 1 Si 183.49 8.68117 1.62815 0
115 1 Si 182.79 2.59266 1.62864 0
116 1 Si 188.239 4.89719 1.62802 0
117 1 Si 190.664 7.22161 1.63009 0
118 1 Si 184.745 12.0787 1.62547 0
119 1 Si 191.176 10.5485 1.61249 0
120 1 Si 187.338 14.2324 1.62404 0
121 1 Si 190.619 13.8487 1.63543 0
122 1 Si 189.398 1.71004 1.61136 0
123 1 Si 187.354 174.792 1.63401 0
124 1 Si 184.05 175.104 1.65578 0
125 1 Si 193.652 5.87502 1.61498 0
126 1 Si 195.104 2.98602 1.61897 0
127 1 Si 192.569 0.650294 1.61866 0
128 1 Si 0.156305 2.46662 1.63999 0
129 1 Si 200.655 1.306 1.62553 0
130 1 Si 200.928 6.39847 1.62985 0
131 1 Si 198.566 3.72866 1.63199 0
132 1 Si 2.18677 5.0627 1.62478 0
133 1 Si 0.550884 7.89316 1.61396 0
134 1 Si 1.62271 175.378 1.62009 0
135 1 Si 200.227 173.686 1.62749 0
136 1 Si 203.328 172.804 1.63726 0
137 1 Si 195.827 8.11117 1.61934 0
138 1 Si 198.905 8.72676 1.63305 0
139 1 Si 5.53895 4.9227 1.62684 0
140 1 Si 6.91533 1.7957 1.62067 0
141 1 Si 4.77737 174.948 1.61894 0
142 1 Si 104.299 9.52941 1.64147 0
143 1 Si 101.057 9.68776 1.60738 0
144 1 Si 98.081 5.27069 1.63612 0
145 1 Si 98.0971 8.40066 1.63809 0
146 1 Si 111.104 10.7633 1.63253 0
147 1 Si 114.315 11.6647 1.63559 0
148 1 Si 134.921 11.7683 1.61892 0
149 1 Si 127.508 10.9855 1.62937 0
150 1 Si 129.906 13.3471 1.60288 0
151 1 Si 133.035 14.333 1.63836 0
152 1 Si 140.197 12.1002 1.61662 0
153 1 Si 137.564 13.7762 1.62822 0
154 1 Si 156.809 8.73349 1.63251 0
155 1 Si 163.463 11.6633 1.63039 0
156 1 Si 157.555 11.8634 1.62101 0
157 1 Si 160.548 13.1962 1.63326 0
158 1 Si 168.696 12.4222 1.63302 0
159 1 Si 165.815 13.9201 1.63393 0
160 1 Si 182.954 14.9091 1.62648 0
161 1 Si 179.883 14.3094 1.63515 0
162 1 Si 194.312 10.8334 1.61937 0
163 1 Si 199.416 11.7828 1.60495 0
164 1 Si 196.523 12.9618 1.5907 0
165 1 Si 2.46165 10.9358 1.64153 0
166 1 Si 5.96753 11.0466 1.63902 0
167 1 Si 7.31989 7.84419 1.62968 0
168 1 Si 105.665 12.4521 1.62565 0
169 1 Si 108.816 13.0006 1.62907 0
170 1 Si 121.287 12.1131 1.64362 0
171 1 Si 115.125 15.0159 1.62278 0
172 1 Si 120.148 15.1571 1.61267 0
173 1 Si 117.733 17.1873 1.64379 0
174 1 Si 124.523 12.3504 1.63442 0
175 1 Si 145.294 12.2825 1.64966 0
176 1 Si 142.7 14.1024 1.61041 0
177 1 Si 150.357 11.5506 1.60348 0
178 1 Si 148.054 13.7286 1.60693 0
179 1 Si 155.326 14.2145 1.62441 0
180 1 Si 152.159 14.1682 1.61535 0
181 1 Si 171.211 14.2197 1.64607 0
182 1 Si 174.267 13.7926 1.64121 0
183 1 Si 183.522 18.2795 1.61877 0
184 1 Si 186.589 17.4588 1.61856 0
185 1 Si 201.39 14.2119 1.62787 0
186 1 Si 1.07203 14.0631 1.63029 0
187 1 Si 103.769 14.956 1.62626 0
188 1 Si 100.661 15.1947 1.61876 0
189 1 Si 99.4353 12.4008 1.62825 0
190 1 Si 109.666 16.0067 1.63253 0
191 1 Si 112.609 17.0595 1.6011 0
192 1 Si 129.95 16.5955 1.62068 0
193 1 Si 124.733 15.4477 1.62547 0
194 1 Si 127.051 17.4559 1.63085 0
195 1 Si 131.787 19.2761 1.6258 0
196 1 Si 134.338 17.4704 1.63372 0
197 1 Si 141.991 17.2466 1.63435 0
198 1 Si 138.757 16.8422 1.63025 0
199 1 Si 160.072 16.4372 1.59982 0
200 1 Si 156.925 16.9475 1.60746 0
201 1 Si 165.57 17.1831 1.62693 0
202 1 Si 161.11 19.5376 1.63134 0
203 1 Si 164.204 20.2054 1.62972 0
204 1 Si 170.863 17.2382 1.63529 0
205 1 Si 168.234 18.7068 1.63575 0
206 1 Si 178.751 17.3722 1.62954 0
207 1 Si 175.841 16.4401 1.62615 0
208 1 Si 179.129 20.6336 1.63809 0
209 1 Si 182.18 21.5759 1.63171 0
210 1 Si 198.438 15.399 1.64488 0
211 1 Si 192.91 16.5924 1.63574 0
212 1 Si 196.279 17.6551 1.62694 0
213 1 Si 104.451 17.9971 1.6154 0
214 1 Si 107.531 18.3201 1.62346 0
215 1 Si 122.349 17.3739 1.63417 0
216 1 Si 149.832 16.3752 1.61555 0
217 1 Si 143.695 20.1106 1.62055 0
218 1 Si 150.105 19.6748 1.63908 0
219 1 Si 146.993 21.0468 1.61376 0
220 1 Si 173.627 18.5094 1.62704 0
221 1 Si 191.489 19.4842 1.59434 0
222 1 Si 188.363 20.1003 1.60169 0
223 1 Si 2.87594 16.9602 1.61674 0
224 1 Si 198.659 20.1909 1.60853 0
225 1 Si 202.042 21.1211 1.61617 0
226 1 Si 1.67301 20.1107 1.63681 0
227 1 Si 7.95741 14.1261 1.62379 0
228 1 Si 6.25858 16.9328 1.62211 0
229 1 Si 101.797 19.7513 1.63826 0
230 1 Si 99.1959 17.9778 1.62456 0
231 1 Si 111.403 20.064 1.64389 0
232 1 Si 108.347 21.3262 1.58443 0
233 1 Si 118.744 20.5135 1.6392 0
234 1 Si 113.533 22.2725 1.61672 0
235 1 Si 116.592 22.7891 1.62431 0
236 1 Si 126.342 20.438 1.63623 0
237 1 Si 123.257 20.3218 1.63311 0
238 1 Si 128.304 22.8167 1.62631 0
239 1 Si 131.48 22.5451 1.62041 0
240 1 Si 136.993 19.5257 1.62512 0
241 1 Si 141.727 22.7848 1.61685 0
242 1 Si 138.303 22.7538 1.64725 0
243 1 Si 156.19 20.0211 1.62342 0
244 1 Si 153.27 21.3322 1.64433 0
245 1 Si 158.852 21.8368 1.60758 0
246 1 Si 168.51 21.759 1.61354 0
247 1 Si 165.74 23.1688 1.6021 0
248 1 Si 174.042 21.4726 1.61541 0
249 1 Si 171.334 22.9052 1.63418 0
250 1 Si 176.803 22.8824 1.62433 0
251 1 Si 191.465 22.6611 1.63517 0
252 1 Si 196.856 22.9624 1.59477 0
253 1 Si 193.954 24.6036 1.63149 0
254 1 Si 105.395 22.8442 1.62314 0
255 1 Si 102.053 22.8787 1.61987 0
256 1 Si 121.295 22.7114 1.61127 0
257 1 Si 147.241 24.3318 1.61645 0
258 1 Si 143.992 25.1829 1.62872 0
259 1 Si 155.033 24.2815 1.62684 0
260 1 Si 150.039 26.2955 1.63356 0
261 1 Si 153.393 27.0093 1.63152 0
262 1 Si 172.348 25.8021 1.63101 0
263 1 Si 175.571 25.8401 1.63647 0
264 1 Si 188.312 23.326 1.62241 0
265 1 Si 182.716 25.2078 1.62163 0
266 1 Si 186.084 25.8439 1.62079 0
267 1 Si 202.089 24.3974 1.60852 0
268 1 Si 199.069 25.2398 1.6162 0
269 1 Si 0.624852 26.8298 1.63517 0
270 1 Si 3.5775 25.8132 1.62978 0
271 1 Si 3.92723 22.6074 1.61428 0
272 1 Si 113.184 25.3109 1.57815 0
273 1 Si 116.27 25.926 1.60644 0
274 1 Si 123.212 25.3473 1.6351 0
275 1 Si 126.423 25.2909 1.62349 0
276 1 Si 133.089 25.4673 1.62524 0
277 1 Si 136.418 25.7357 1.62422 0
278 1 Si 158.375 25.022 1.63185 0
279 1 Si 166.433 26.413 1.63647 0
280 1 Si 160.508 27.797 1.62316 0
281 1 Si 163.887 28.5491 1.62074 0
282 1 Si 169.65 27.5143 1.63063 0
283 1 Si 177.037 28.6923 1.63776 0
284 1 Si 180.479 28.372 1.6492 0
285 1 Si 193.066 27.8912 1.62431 0
286 1 Si 198.613 28.3222 1.63061 0
287 1 Si 195.772 29.6221 1.60877 0
288 1 Si 105.837 25.8563 1.64367 0
289 1 Si 104.063 28.3742 1.59521 0
290 1 Si 101.738 30.4473 1.64142 0
291 1 Si 99.4652 24.9646 1.62879 0
292 1 Si 99.3326 28.2695 1.61341 0
293 1 Si 108.526 27.2856 1.60266 0
294 1 Si 106.816 29.7477 1.60079 0
295 1 Si 111.468 27.8306 1.64727 0
296 1 Si 117.317 28.9575 1.62747 0
297 1 Si 122.882 28.5134 1.63197 0
298 1 Si 120.269 30.3273 1.62152 0
299 1 Si 128.066 27.9529 1.64229 0
300 1 Si 131.23 28.2835 1.63974 0
301 1 Si 143.136 28.3027 1.64081 0
302 1 Si 137.254 29.1029 1.62175 0
303 1 Si 140.39 30.1641 1.63388 0
304 1 Si 149.069 29.2796 1.63239 0
305 1 Si 145.941 29.7837 1.62491 0
306 1 Si 155.48 29.7365 1.61559 0
307 1 Si 150.962 31.8389 1.65579 0
308 1 Si 154.022 32.5979 1.61695 0
309 1 Si 171.148 30.3949 1.62276 0
310 1 Si 174.534 31.083 1.64106 0
311 1 Si 187.174 29.0648 1.63615 0
312 1 Si 181.727 31.5583 1.62161 0
313 1 Si 184.983 31.569 1.62564 0
314 1 Si 190.403 29.9976 1.65494 0
315 1 Si 200.785 30.6373 1.61685 0
316 1 Si 0.256294 30.0468 1.64576 0
317 1 Si 112.056 30.9048 1.65874 0
318 1 Si 115.165 31.3356 1.61454 0
319 1 Si 125.718 30.0323 1.62702 0
320 1 Si 131.834 31.5538 1.64514 0
321 1 Si 135.112 31.7498 1.61994 0
322 1 Si 158.701 30.5798 1.62549 0
323 1 Si 165.204 31.6775 1.62353 0
324 1 Si 168.471 32.3193 1.6331 0
325 1 Si 175.131 34.3941 1.6312 0
326 1 Si 196.424 32.7769 1.62096 0
327 1 Si 190.951 33.3347 1.62622 0
328 1 Si 193.918 34.7003 1.63021 0
329 1 Si 199.553 33.5469 1.63246 0
330 1 Si 2.40571 32.4278 1.61642 0
331 1 Si 5.2588 31.2655 1.62743 0
332 1 Si 5.67801 28.1832 1.63377 0
333 1 Si 106.412 32.6393 1.59382 0
334 1 Si 107.483 35.3542 1.46484 0
335 1 Si 104.579 35.8317 2.34848 0
336 1 Si 102.351 33.7 1.66392 0
337 1 Si 109.785 33.0949 1.56061 0
338 1 Si 126.449 33.0846 1.62865 0
339 1 Si 121.008 33.5579 1.62789 0
340 1 Si 123.925 35.0242 1.63884 0
341 1 Si 129.503 34.0971 1.62661 0
342 1 Si 140.835 33.4239 1.6258 0
343 1 Si 135.92 34.902 1.634 0
344 1 Si 138.931 35.9661 1.62972 0
345 1 Si 146.017 32.8249 1.62872 0
346 1 Si 143.664 34.7587 1.62331 0
347 1 Si 148.845 34.0481 1.60512 0
348 1 Si 160 33.7268 1.6557 0
349 1 Si 155.163 35.6616 1.63113 0
350 1 Si 158.284 36.5788 1.6287 0
351 1 Si 163.219 34.3465 1.64378 0
352 1 Si 169.414 35.3549 1.63142 0
353 1 Si 172.455 36.268 1.62669 0
354 1 Si 201.362 36.2236 1.62017 0
355 1 Si 0.858562 37.2557 1.62804 0
356 1 Si 3.49017 35.5011 1.63164 0
357 1 Si 115.85 34.4139 1.63163 0
358 1 Si 110.356 36.4005 1.66685 0
359 1 Si 113.416 36.3448 1.627 0
360 1 Si 118.691 35.7681 1.63165 0
361 1 Si 128.921 37.4687 1.62902 0
362 1 Si 134.073 37.4396 1.60041 0
363 1 Si 131.476 39.1776 1.64272 0
364 1 Si 147.958 36.99 1.64412 0
365 1 Si 153.385 38.2872 1.62504 0
366 1 Si 150.312 38.9421 1.632 0
367 1 Si 164.216 37.541 1.6239 0
368 1 Si 167.388 37.8467 1.61881 0
369 1 Si 194.412 37.852 1.62484 0
370 1 Si 200.003 39.0771 1.61799 0
371 1 Si 196.946 39.7344 1.63326 0
372 1 Si 124.335 38.2244 1.60451 0
373 1 Si 118.883 39.0227 1.62629 0
374 1 Si 121.848 40.2218 1.61882 0
375 1 Si 126.908 40.1962 1.60457 0
376 1 Si 144.892 37.6311 1.62329 0
377 1 Si 139.986 39.0341 1.62746 0
378 1 Si 142.994 40.1119 1.63427 0
379 1 Si 159.229 39.8683 1.64628 0
380 1 Si 154.359 41.2924 1.62498 0
381 1 Si 157.215 42.5981 1.62628 0
382 1 Si 162.468 40.3929 1.62658 0
383 1 Si 172.002 39.4866 1.6299 0
384 1 Si 168.953 40.6319 1.61343 0
385 1 Si 174.566 41.3291 1.61793 0
386 1 Si 192.063 39.9855 1.62256 0
387 1 Si 202.146 41.4166 1.6252 0
388 1 Si 1.55706 40.3944 1.62244 0
389 1 Si 7.59019 33.3592 1.60186 0
390 1 Si 6.72458 36.4145 1.62819 0
391 1 Si 113.345 39.4736 1.62276 0
392 1 Si 110.068 38.9591 1.63283 0
393 1 Si 116.307 41.0581 1.63989 0
394 1 Si 135.094 40.3775 1.60744 0
395 1 Si 132.505 42.1109 1.60805 0
396 1 Si 138.007 41.4703 1.63026 0
397 1 Si 149.265 41.8739 1.59712 0
398 1 Si 152.017 43.3394 1.60458 0
399 1 Si 163.865 43.4564 1.62927 0
400 1 Si 167.23 43.4235 1.63385 0
401 1 Si 11.9191 4.08543 1.62084 0
402 1 Si 15.1364 3.61291 1.60616 0
403 1 Si 10.6203 7.2765 1.63584 0
404 1 Si 16.5708 6.37451 1.62198 0
405 1 Si 15.6396 9.29338 1.61968 0
406 1 Si 12.5714 9.98185 1.60956 0
407 1 Si 10.2527 1.1781 1.61678 0
408 1 Si 17.9006 1.88686 1.64787 0
409 1 Si 15.2569 173.139 1.5992 0
410 1 Si 11.8453 173.741 1.64602 0
411 1 Si 18.3348 174.459 1.62456 0
412 1 Si 19.5513 5.73443 1.62101 0
413 1 Si 20.9147 2.92801 1.60106 0
414 1 Si 21.8651 7.68092 1.6144 0
415 1 Si 20.8994 10.5958 1.62152 0
416 1 Si 17.9018 11.4679 1.63145 0
417 1 Si 24.621 6.32052 1.62613 0
418 1 Si 24.0703 3.26552 1.63708 0
419 1 Si 27.2622 7.9574 1.63725 0
420 1 Si 26.8083 11.0089 1.64436 0
421 1 Si 23.745 11.7835 1.62074 0
422 1 Si 30.0586 3.47803 1.6225 0
423 1 Si 30.14 6.79775 1.6199 0
424 1 Si 26.8708 1.6145 1.62096 0
425 1 Si 196.16 42.8187 1.63015 0
426 1 Si 193.048 42.9696 1.64015 0
427 1 Si 33.5047 3.01479 1.63025 0
428 1 Si 36.3041 5.14792 1.627 0
429 1 Si 32.4419 9.05956 1.59989 0
430 1 Si 35.4895 8.20283 1.60397 0
431 1 Si 34.6044 175.645 1.63206 0
432 1 Si 26.9948 171.724 1.62679 0
433 1 Si 25.0126 174.301 1.63643 0
434 1 Si 30.2507 171.444 1.61325 0
435 1 Si 33.2905 172.66 1.62982 0
436 1 Si 201.294 44.4388 1.63554 0
437 1 Si 198.184 45.2339 1.6219 0
438 1 Si 39.7783 5.05228 1.63713 0
439 1 Si 40.2747 1.92545 1.62456 0
440 1 Si 37.7893 175.67 1.61007 0
441 1 Si 107.589 41.076 1.61741 0
442 1 Si 104.114 40.6059 1.62081 0
443 1 Si 100.066 35.9634 1.62263 0
444 1 Si 100.964 39.1724 1.64577 0
445 1 Si 109.708 43.7661 1.58325 0
446 1 Si 106.716 44.8629 1.61858 0
447 1 Si 103.769 43.7353 1.63182 0
448 1 Si 47.9824 3.41313 1.63113 0
449 1 Si 51.3932 3.78561 1.63426 0
450 1 Si 46.0864 6.62824 1.63234 0
451 1 Si 52.6343 6.89717 1.64222 0
452 1 Si 47.9304 9.65519 1.63504 0
453 1 Si 51.272 9.96341 1.63148 0
454 1 Si 47.3769 175.476 1.61156 0
455 1 Si 53.755 1.2526 1.62909 0
456 1 Si 49.8039 173.062 1.60603 0
457 1 Si 53.0277 173.722 1.62319 0
458 1 Si 42.5225 7.15703 1.63406 0
459 1 Si 44.7154 173.334 1.624 0
460 1 Si 42.0148 174.97 1.63024 0
461 1 Si 57.9651 4.54167 1.62649 0
462 1 Si 57.1334 1.42451 1.622 0
463 1 Si 55.847 6.97094 1.6232 0
464 1 Si 60.8232 5.99925 1.61635 0
465 1 Si 63.8118 5.07267 1.63154 0
466 1 Si 60.6962 9.17546 1.61828 0
467 1 Si 66.3539 7.05958 1.61762 0
468 1 Si 63.0552 11.3293 1.62969 0
469 1 Si 66.1592 10.3236 1.62876 0
470 1 Si 64.3099 1.97163 1.60121 0
471 1 Si 62.6652 174.926 1.62416 0
472 1 Si 59.4195 174.585 1.63175 0
473 1 Si 57.556 9.68252 1.62918 0
474 1 Si 122.925 43.2595 1.61542 0
475 1 Si 126.197 43.5558 1.6294 0
476 1 Si 68.651 4.79379 1.63427 0
477 1 Si 67.4754 1.77844 1.61166 0
478 1 Si 117.496 44.2773 1.61827 0
479 1 Si 120.752 45.6183 1.633 0
480 1 Si 80.737 6.35129 1.59703 0
481 1 Si 81.2117 3.16931 1.62122 0
482 1 Si 86.5191 5.69046 1.61116 0
483 1 Si 84.4028 3.20753 1.63266 0
484 1 Si 82.2993 9.15398 1.64303 0
485 1 Si 85.3928 8.71165 1.62184 0
486 1 Si 85.062 0.162241 1.62061 0
487 1 Si 88.0979 175.01 1.62237 0
488 1 Si 83.7908 172.961 1.61531 0
489 1 Si 86.858 172.108 1.61516 0
490 1 Si 77.5904 6.42869 1.62338 0
491 1 Si 76.4857 3.50092 1.63676 0
492 1 Si 78.6436 1.20742 1.61869 0
493 1 Si 91.8424 3.79591 1.63412 0
494 1 Si 89.6899 6.25028 1.62695 0
495 1 Si 91.0321 0.615002 1.62642 0
496 1 Si 95.0811 4.01416 1.59067 0
497 1 Si 89.8598 9.54139 1.61393 0
498 1 Si 95.2531 10.0273 1.58055 0
499 1 Si 92.3103 11.5254 1.63709 0
500 1 Si 96.1175 1.04415 1.60807 0
501 1 Si 93.7741 174.605 1.62051 0
502 1 Si 143.838 43.2038 1.61789 0
503 1 Si 146.903 43.9085 1.63712 0
504 1 Si 138.769 44.5738 1.63598 0
505 1 Si 141.794 45.715 1.6112 0
506 1 Si 156.606 45.9825 1.63447 0
507 1 Si 162.289 46.455 1.61373 0
508 1 Si 159.246 47.7856 1.62334 0
509 1 Si 13.4304 13.1699 1.63493 0
510 1 Si 11.3017 15.5146 1.63269 0
511 1 Si 28.9781 13.3139 1.63176 0
512 1 Si 23.623 14.8276 1.61836 0
513 1 Si 26.6748 15.2996 1.62175 0
514 1 Si 191.446 45.684 1.62557 0
515 1 Si 33.395 12.1074 1.6206 0
516 1 Si 31.8269 14.8484 1.63438 0
517 1 Si 41.4199 10.3304 1.60592 0
518 1 Si 36.3841 11.2045 1.61932 0
519 1 Si 39.0955 12.7483 1.64089 0
520 1 Si 0.2103 46.4237 1.64082 0
521 1 Si 3.30076 45.3757 1.62392 0
522 1 Si 4.18049 42.2732 1.63146 0
523 1 Si 112.075 46.2639 1.63591 0
524 1 Si 115.433 46.8146 1.61816 0
525 1 Si 46.5886 12.7185 1.6181 0
526 1 Si 43.4201 12.7459 1.61107 0
527 1 Si 107.346 47.8732 1.6093 0
528 1 Si 110.269 48.9353 1.58992 0
529 1 Si 56.4936 12.6672 1.62909 0
530 1 Si 53.1737 12.8955 1.63905 0
531 1 Si 62.1817 14.4289 1.6486 0
532 1 Si 58.9404 14.908 1.63682 0
533 1 Si 133.183 45.169 1.62972 0
534 1 Si 127.723 46.6964 1.62607 0
535 1 Si 130.982 47.4152 1.61641 0
536 1 Si 72.8717 8.73864 1.61804 0
537 1 Si 71.7776 5.50271 1.63084 0
538 1 Si 68.4378 12.6908 1.62823 0
539 1 Si 71.5885 11.8234 1.64102 0
540 1 Si 136.172 46.3665 1.6283 0
541 1 Si 76.1021 9.19994 1.61564 0
542 1 Si 73.4652 2.63375 1.62569 0
543 1 Si 77.9396 11.9226 1.63483 0
544 1 Si 81.1559 12.2213 1.62791 0
545 1 Si 151.295 46.3862 1.63051 0
546 1 Si 148.141 46.8505 1.61823 0
547 1 Si 87.1542 11.3708 1.61694 0
548 1 Si 153.9 48.1061 1.62996 0
549 1 Si 96.3734 12.929 1.61616 0
550 1 Si 16.5374 14.2633 1.62904 0
551 1 Si 168.838 46.2458 1.61774 0
552 1 Si 163.984 49.2516 1.61892 0
553 1 Si 167.261 49.0751 1.61653 0
554 1 Si 21.6237 17.1556 1.65328 0
555 1 Si 18.428 16.8968 1.61372 0
556 1 Si 193.602 48.219 1.63505 0
557 1 Si 196.989 48.2305 1.63233 0
558 1 Si 47.0418 16.0174 1.62692 0
559 1 Si 52.5112 16.2203 1.62426 0
560 1 Si 49.6193 17.9594 1.62716 0
561 1 Si 104.836 49.589 1.61735 0
562 1 Si 101.897 48.5034 1.62443 0
563 1 Si 101.057 45.4642 1.62967 0
564 1 Si 67.6446 15.9373 1.63156 0
565 1 Si 64.5134 16.7574 1.6483 0
566 1 Si 122.724 48.5569 1.62583 0
567 1 Si 126.087 49.6594 1.61098 0
568 1 Si 117.56 49.484 1.62689 0
569 1 Si 120.655 50.961 1.63477 0
570 1 Si 73.4235 14.5333 1.64146 0
571 1 Si 76.5935 14.7853 1.62431 0
572 1 Si 82.8384 15.1558 1.63714 0
573 1 Si 86.165 14.5657 1.63381 0
574 1 Si 142.85 48.8731 1.63135 0
575 1 Si 136.621 49.5545 1.61304 0
576 1 Si 139.955 50.7829 1.63452 0
577 1 Si 146.366 49.5307 1.63762 0
578 1 Si 91.5353 14.7821 1.62697 0
579 1 Si 94.6085 15.583 1.63372 0
580 1 Si 158.721 51.0822 1.62187 0
581 1 Si 161.944 51.856 1.63584 0
582 1 Si 13.4893 18.395 1.63139 0
583 1 Si 8.28906 19.5859 1.63427 0
584 1 Si 11.3959 20.7624 1.62904 0
585 1 Si 186.074 50.806 1.58243 0
586 1 Si 192.077 50.9994 1.61837 0
587 1 Si 189.853 53.1781 1.64269 0
588 1 Si 186.906 54.0387 1.62061 0
589 1 Si 27.0673 18.2715 1.62836 0
590 1 Si 24.0583 19.1764 1.61623 0
591 1 Si 199.617 50.3511 1.6335 0
592 1 Si 202.895 49.5186 1.63435 0
593 1 Si 42.2084 15.676 1.62038 0
594 1 Si 39.0926 16.1272 1.61767 0
595 1 Si 108.982 51.8517 1.64257 0
596 1 Si 105.872 52.5105 1.57969 0
597 1 Si 44.3965 17.9399 1.62487 0
598 1 Si 116.526 52.3917 1.64364 0
599 1 Si 113.674 53.6291 1.58474 0
600 1 Si 110.632 54.4564 1.643 0
601 1 Si 55.0053 18.4 1.62985 0
602 1 Si 58.2503 18.0313 1.63625 0
603 1 Si 69.7321 18.5122 1.63229 0
604 1 Si 72.7854 17.6719 1.63114 0
605 1 Si 133.208 49.9345 1.62995 0
606 1 Si 77.8988 17.7752 1.63 0
607 1 Si 81.1929 18.2082 1.64095 0
608 1 Si 152.736 51.2795 1.61982 0
609 1 Si 148.994 51.8715 1.62905 0
610 1 Si 88.747 16.7344 1.63022 0
611 1 Si 155.788 52.9638 1.64182 0
612 1 Si 16.819 19.7011 1.60751 0
613 1 Si 32.4991 18.1012 1.62469 0
614 1 Si 29.7491 19.7479 1.60391 0
615 1 Si 193.528 53.7448 1.60638 0
616 1 Si 199.221 53.5865 1.61848 0
617 1 Si 196.37 54.9634 1.62348 0
618 1 Si 38.0607 19.3749 1.63134 0
619 1 Si 34.8605 20.3968 1.63059 0
620 1 Si 2.05289 51.3747 1.64018 0
621 1 Si 5.32383 50.3718 1.63485 0
622 1 Si 6.03195 47.135 1.61791 0
623 1 Si 54.4484 21.5349 1.61897 0
624 1 Si 48.9328 21.3616 1.63214 0
625 1 Si 51.6525 23.1293 1.62602 0
626 1 Si 102.758 53.1916 1.6416 0
627 1 Si 100.239 51.1282 1.64298 0
628 1 Si 63.8893 19.9648 1.64493 0
629 1 Si 60.6529 20.3303 1.64012 0
630 1 Si 118.798 54.5692 1.62218 0
631 1 Si 121.881 54.1485 1.60627 0
632 1 Si 69.2964 21.7968 1.64133 0
633 1 Si 66.1151 22.4928 1.64513 0
634 1 Si 131.71 52.8141 1.62547 0
635 1 Si 128.154 52.8114 1.62392 0
636 1 Si 75.3077 19.7528 1.63203 0
637 1 Si 82.442 21.4429 1.63297 0
638 1 Si 88.5518 20.2291 1.63887 0
639 1 Si 85.7327 22.2168 1.61425 0
640 1 Si 140.591 54.0891 1.63654 0
641 1 Si 147.439 54.8618 1.62857 0
642 1 Si 143.936 55.3991 1.61785 0
643 1 Si 134.072 55.3248 1.63945 0
644 1 Si 137.614 55.9574 1.62889 0
645 1 Si 96.0369 18.4386 1.64803 0
646 1 Si 7.11099 22.5173 1.63761 0
647 1 Si 163.391 54.7981 1.63139 0
648 1 Si 166.545 55.506 1.60132 0
649 1 Si 12.2893 23.9584 1.62801 0
650 1 Si 9.28088 24.9219 1.63239 0
651 1 Si 25.0962 22.1375 1.63879 0
652 1 Si 19.0777 22.4666 1.62962 0
653 1 Si 22.3256 23.7507 1.62207 0
654 1 Si 28.3522 22.612 1.61767 0
655 1 Si 155.919 56.4021 1.62887 0
656 1 Si 162.15 57.8013 1.62688 0
657 1 Si 158.898 58.1949 1.61705 0
658 1 Si 191.295 55.9199 1.57962 0
659 1 Si 40.3411 21.8761 1.62737 0
660 1 Si 43.5665 21.0893 1.62478 0
661 1 Si 1.20839 54.5251 1.64809 0
662 1 Si 201.718 55.7023 1.62285 0
663 1 Si 56.8135 23.7094 1.62862 0
664 1 Si 60.0025 23.4673 1.63863 0
665 1 Si 114.594 56.5707 1.61544 0
666 1 Si 109.466 57.4282 1.59062 0
667 1 Si 112.333 58.571 1.60801 0
668 1 Si 74.8605 23.0373 1.62405 0
669 1 Si 71.6741 24.1735 1.62404 0
670 1 Si 117.567 57.386 1.63126 0
671 1 Si 107.366 59.8619 1.63517 0
672 1 Si 104.307 58.7592 1.61457 0
673 1 Si 102.223 56.2517 1.61763 0
674 1 Si 80.7515 24.4113 1.62369 0
675 1 Si 77.4452 25.1504 1.63466 0
676 1 Si 126.796 56.053 1.6244 0
677 1 Si 131.962 57.838 1.62086 0
678 1 Si 128.779 58.6773 1.62656 0
679 1 Si 91.3684 22.1067 1.61542 0
680 1 Si 94.5617 21.308 1.63654 0
681 1 Si 149.488 57.5678 1.62376 0
682 1 Si 152.917 58.1645 1.64297 0
683 1 Si 143.983 58.6637 1.62009 0
684 1 Si 147.036 59.8016 1.61614 0
685 1 Si 17.9292 25.4779 1.62178 0
686 1 Si 14.7432 26.2055 1.65338 0
687 1 Si 167.34 58.6196 1.61478 0
688 1 Si 170.437 59.4692 1.61314 0
689 1 Si 33.7925 23.6798 1.62488 0
690 1 Si 30.5646 24.9738 1.62466 0
691 1 Si 186.039 57.2861 1.62572 0
692 1 Si 176.553 59.3994 1.62906 0
693 1 Si 179.71 59.4347 1.60603 0
694 1 Si 39.5321 25.1267 1.63372 0
695 1 Si 36.2486 25.9068 1.63405 0
696 1 Si 46.0621 23.2654 1.61482 0
697 1 Si 192.603 58.7067 1.65371 0
698 1 Si 195.713 58.0862 1.6307 0
699 1 Si 3.73434 56.5106 1.63083 0
700 1 Si 7.84357 52.5742 1.63126 0
701 1 Si 6.86923 55.6884 1.62497 0
702 1 Si 55.6323 26.6102 1.63198 0
703 1 Si 52.4122 26.2849 1.6235 0
704 1 Si 62.1646 25.9537 1.63624 0
705 1 Si 65.4179 25.7255 1.6319 0
706 1 Si 123.575 57.0702 1.63397 0
707 1 Si 118.984 60.1517 1.64557 0
708 1 Si 122.194 60.3305 1.64324 0
709 1 Si 85.9141 25.5911 1.61911 0
710 1 Si 82.9126 26.9659 1.62411 0
711 1 Si 91.3575 25.4267 1.63175 0
712 1 Si 88.7191 27.4134 1.64612 0
713 1 Si 138.451 59.1942 1.63284 0
714 1 Si 141.358 60.6443 1.627 0
715 1 Si 96.3667 24.0037 1.62033 0
716 1 Si 164.554 60.1231 1.63263 0
717 1 Si 8.78614 28.0361 1.6142 0
718 1 Si 153.589 61.358 1.63904 0
719 1 Si 159.28 61.4293 1.61626 0
720 1 Si 156.431 62.6447 1.62291 0
721 1 Si 23.4964 26.9439 1.59543 0
722 1 Si 20.3619 27.691 1.62349 0
723 1 Si 171.995 62.3526 1.6217 0
724 1 Si 175.193 62.2079 1.65347 0
725 1 Si 29.3974 28.2313 1.62863 0
726 1 Si 25.9726 29.4159 1.63495 0
727 1 Si 187.632 60.8806 1.62505 0
728 1 Si 191.02 61.4308 1.61563 0
729 1 Si 45.2482 26.6515 1.64373 0
730 1 Si 41.9394 27.5287 1.64382 0
731 1 Si 201.082 58.9363 1.6466 0
732 1 Si 198.041 60.2243 1.62736 0
733 1 Si 0.108846 60.8738 1.64248 0
734 1 Si 3.19263 59.6752 1.61369 0
735 1 Si 61.045 28.966 1.64249 0
736 1 Si 57.7792 29.0136 1.64083 0
737 1 Si 113.612 61.3343 1.59539 0
738 1 Si 116.592 62.1368 1.58449 0
739 1 Si 70.8189 27.4795 1.62435 0
740 1 Si 67.5577 28.385 1.62858 0
741 1 Si 108.594 63.0064 1.63851 0
742 1 Si 111.739 63.8088 1.60978 0
743 1 Si 76.4082 28.2969 1.62018 0
744 1 Si 73.3441 29.6598 1.62805 0
745 1 Si 133.243 60.6791 1.62135 0
746 1 Si 128.242 62.0209 1.62427 0
747 1 Si 131.238 63.1045 1.61876 0
748 1 Si 136.235 61.5144 1.62608 0
749 1 Si 94.3844 26.5259 1.61218 0
750 1 Si 146.721 63.0247 1.62166 0
751 1 Si 152.138 64.2288 1.62876 0
752 1 Si 149.123 65.0548 1.62602 0
753 1 Si 141.186 64.0095 1.61749 0
754 1 Si 144.196 65.1168 1.63012 0
755 1 Si 14.531 29.473 1.61734 0
756 1 Si 9.7582 31.0771 1.64019 0
757 1 Si 12.6823 32.1455 1.62601 0
758 1 Si 164.753 63.3886 1.63493 0
759 1 Si 167.274 65.7034 1.6378 0
760 1 Si 170.683 65.3531 1.61999 0
761 1 Si 19.9964 30.8391 1.61868 0
762 1 Si 16.9634 31.4749 1.61966 0
763 1 Si 180.594 62.4366 1.61655 0
764 1 Si 186.436 64.1443 1.62455 0
765 1 Si 183.114 64.3878 1.60902 0
766 1 Si 32.1514 30.1588 1.61986 0
767 1 Si 35.2858 29.024 1.62229 0
768 1 Si 196.892 63.3238 1.6267 0
769 1 Si 193.43 63.8355 1.6301 0
770 1 Si 47.4706 29.2619 1.62847 0
771 1 Si 50.8163 29.0528 1.63451 0
772 1 Si 203.118 64.1009 1.62038 0
773 1 Si 199.656 65.3445 1.65444 0
774 1 Si 106.919 65.7729 1.62531 0
775 1 Si 103.756 65.8364 1.60825 0
776 1 Si 101.842 60.6615 1.60004 0
777 1 Si 101.542 63.7103 1.62929 0
778 1 Si 63.0969 31.5202 1.61751 0
779 1 Si 66.3829 31.5875 1.62262 0
780 1 Si 122.878 63.7515 1.63624 0
781 1 Si 114.809 64.7065 1.63986 0
782 1 Si 117.083 66.8855 1.61411 0
783 1 Si 120.579 66.4217 1.63373 0
784 1 Si 81.9197 30.1957 1.63516 0
785 1 Si 78.6342 30.6084 1.6282 0
786 1 Si 126.153 64.6626 1.62681 0
787 1 Si 89.026 30.8291 1.63109 0
788 1 Si 83.5659 33.1459 1.6317 0
789 1 Si 86.9081 33.5001 1.62827 0
790 1 Si 135.75 64.7331 1.63057 0
791 1 Si 138.583 66.2124 1.63207 0
792 1 Si 96.2275 29.1609 1.62369 0
793 1 Si 91.8887 32.4294 1.59971 0
794 1 Si 95.146 32.1701 1.63977 0
795 1 Si 161.527 63.7367 1.62021 0
796 1 Si 177.798 63.9764 1.57961 0
797 1 Si 24.7911 32.8772 1.62568 0
798 1 Si 21.5605 33.6793 1.6181 0
799 1 Si 32.3142 33.4177 1.63268 0
800 1 Si 29.5989 35.4116 1.62678 0
801 1 Si 26.2557 35.8985 1.62836 0
802 1 Si 192.198 66.9283 1.62391 0
803 1 Si 188.588 67.0046 1.63129 0
804 1 Si 40.9685 30.8016 1.64955 0
805 1 Si 37.6298 31.3144 1.62057 0
806 1 Si 3.03687 64.8276 1.63615 0
807 1 Si 6.35342 60.5832 1.62492 0
808 1 Si 6.52694 63.7654 1.63838 0
809 1 Si 46.4642 32.4471 1.6211 0
810 1 Si 43.2851 33.3065 1.6297 0
811 1 Si 107.724 68.8892 1.6244 0
812 1 Si 114.304 68.9114 1.59673 0
813 1 Si 110.982 69.8254 1.62255 0
814 1 Si 56.4211 31.8633 1.6318 0
815 1 Si 53.1003 31.4883 1.63146 0
816 1 Si 62.0226 34.5691 1.61088 0
817 1 Si 58.7108 34.3245 1.64091 0
818 1 Si 132.669 65.9292 1.63882 0
819 1 Si 127.415 67.9531 1.62686 0
820 1 Si 130.774 68.6879 1.6414 0
821 1 Si 73.3839 33.0073 1.62144 0
822 1 Si 67.5204 34.8592 1.63004 0
823 1 Si 71.1219 35.6684 1.62968 0
824 1 Si 76.6847 33.2165 1.62049 0
825 1 Si 153.818 66.9728 1.64094 0
826 1 Si 148.137 68.0928 1.61933 0
827 1 Si 153.021 70.0407 1.61622 0
828 1 Si 149.899 70.7046 1.61514 0
829 1 Si 156.635 65.7573 1.60478 0
830 1 Si 159.687 66.3079 1.63903 0
831 1 Si 16.6713 34.6283 1.6214 0
832 1 Si 13.5957 35.3076 1.6306 0
833 1 Si 160.185 69.3728 1.64107 0
834 1 Si 166.113 68.7747 1.63987 0
835 1 Si 163.234 69.9429 1.6168 0
836 1 Si 19.4335 36.2953 1.63012 0
837 1 Si 180.303 65.9038 1.59673 0
838 1 Si 172.967 67.8154 1.65878 0
839 1 Si 179.421 68.8335 1.58176 0
840 1 Si 176.165 68.7271 1.59078 0
841 1 Si 35.6294 33.9306 1.62812 0
842 1 Si 194.94 69.2683 1.63178 0
843 1 Si 198.537 68.5806 1.63438 0
844 1 Si 48.6458 34.8983 1.64176 0
845 1 Si 51.8124 34.3604 1.64047 0
846 1 Si 104.592 70.1551 1.63604 0
847 1 Si 101.888 68.3971 1.59076 0
848 1 Si 64.5902 36.7872 1.63202 0
849 1 Si 122.016 69.4619 1.61988 0
850 1 Si 116.405 71.355 1.61376 0
851 1 Si 119.61 71.6855 1.64964 0
852 1 Si 125.283 70.6236 1.63253 0
853 1 Si 78.2747 35.9343 1.6197 0
854 1 Si 81.5535 35.8232 1.61793 0
855 1 Si 91.5327 35.6227 1.60491 0
856 1 Si 88.4386 36.5771 1.62932 0
857 1 Si 144.969 68.2714 1.61728 0
858 1 Si 138.131 69.517 1.62739 0
859 1 Si 143.735 71.278 1.63525 0