LAMMPS data file via write_data, version 2 Aug 2023, timestep = 468, units = metal

15468 atoms
2 atom types

8.33545463994676 195.93724920761454 xlo xhi
6.781238943821059 169.4237275722283 ylo yhi
-100 100 zlo zhi

Masses

1 28.085
2 15.999

Atoms # full

9297 1 2 0 12.171464428804958 7.308388439841774 -2.259618936890269 0 0 0
9293 1 2 0 12.87439754031242 9.685708489395413 -2.110259695531324 0 0 0
6605 1 1 0 13.42576203322744 8.193559763182419 -1.6387580104386323 0 0 0
6579 1 1 0 8.368158402634293 9.997440887134118 -1.6488594680148185 0 0 0
9256 1 2 0 9.937882734009538 9.85378145094988 -2.2326257291266867 0 0 0
6602 1 1 0 11.421742778815538 10.3761839515558 -1.643502606446265 0 0 0
9292 1 2 0 11.684988606524506 11.90526707989487 -2.201145981448251 0 0 0
9298 1 2 0 14.934820510786142 7.8321541057411315 -2.2470396476780734 0 0 0
6823 1 1 0 16.43084885366264 7.3771776862615255 -1.649389207844839 0 0 0
9629 1 2 0 17.614479871468806 8.371754217972642 -2.2370642457469354 0 0 0
6825 1 1 0 19.011178729408098 9.029126617829242 -1.6451129148298906 0 0 0
9631 1 2 0 19.045879517052416 10.551771551760774 -2.2488462782229717 0 0 0
6824 1 1 0 18.402609539945793 11.930861774372133 -1.648241808151989 0 0 0
9367 1 2 0 16.847781718087433 12.000116280838563 -2.2123160664181163 0 0 0
9633 1 2 0 20.43242536027869 8.40705985047075 -2.2085384617268353 0 0 0
6832 1 1 0 22.003287461921097 8.397522137059184 -1.6494631369098172 0 0 0
9645 1 2 0 22.482662813816574 6.901571147237791 -2.2089877692109643 0 0 0
9642 1 2 0 22.985216168587705 9.664084242754551 -2.181422610366197 0 0 0
6831 1 1 0 23.319102053127573 11.238374824383857 -1.648202951378464 0 0 0
9644 1 2 0 24.722952308083784 12.009105802650343 -2.1776466889125223 0 0 0
9643 1 2 0 22.045547317215078 12.140420013351855 -2.22054217931478 0 0 0
6843 1 1 0 27.269489914769803 7.20690058664163 -1.6457424059698684 0 0 0
9652 1 2 0 27.3302078595998 8.77600254173485 -2.212139677658016 0 0 0
6836 1 1 0 28.063897949282556 10.182489348234782 -1.6498641841355477 0 0 0
9651 1 2 0 29.632342717032227 10.156118994500243 -2.2102736175244164 0 0 0
9650 1 2 0 27.32735591927645 11.588776190089042 -2.184600726230326 0 0 0
13281 1 2 0 28.031304012593598 10.178040240731354 -8.483249166421602e-07 0 0 0
13288 1 2 0 27.35683089888703 7.26803970627087 -9.438682003382995e-08 0 0 0
6846 1 1 0 32.14837888770458 6.971030088311313 -1.648118768120939 0 0 0
9655 1 2 0 31.836011858589963 8.491014123328528 -2.2347178297655015 0 0 0
6838 1 1 0 31.176090788004473 9.903399573624835 -1.6478399654823936 0 0 0
9654 1 2 0 32.12233328264655 11.135369783436094 -2.2043193599252118 0 0 0
9657 1 2 0 34.76430675034631 11.522017236939122 -2.1820142093018244 0 0 0
6839 1 1 0 33.27480871600417 12.19140127660946 -1.6464450448905499 0 0 0
13283 1 2 0 31.155223699261533 9.860121443713942 -2.0527789035313994e-07 0 0 0
6852 1 1 0 36.8406900960808 7.548050265735031 -1.6413076105968194 0 0 0
9672 1 2 0 36.00985672503253 8.899104432070493 -2.200849131922523 0 0 0
6848 1 1 0 36.01756272614532 10.500196198780678 -1.6490878175420576 0 0 0
9671 1 2 0 37.5680543111309 10.897477249383682 -2.1468369564759744 0 0 0
9674 1 2 0 40.23387845612345 11.761937322374008 -2.2335730677740497 0 0 0
6849 1 1 0 38.675093951577544 12.027888502005965 -1.6407351453710728 0 0 0
13297 1 2 0 36.898610003206 7.697969836160798 -4.953471928422917e-07 0 0 0
9679 1 2 0 38.375090747368326 7.207541021761806 -2.217569926206448 0 1 0
13294 1 2 0 38.823478371292516 12.061514742153644 -3.8023777460160393e-07 0 0 0
9690 1 2 0 43.4574953998599 7.542071700563178 -2.2104134644177686 0 0 0
6859 1 1 0 43.704708319004375 9.099548965960704 -1.6522770979186967 0 0 0
9689 1 2 0 45.18244387439258 9.70156074377555 -2.191523240001206 0 0 0
6854 1 1 0 41.79481308369736 11.465743213890498 -1.646355979688101 0 0 0
9682 1 2 0 42.411407064682976 10.012686314611269 -2.1874565826347956 0 0 0
6863 1 1 0 46.70860804697436 9.276688203859075 -1.6477718957430725 0 0 0
13299 1 2 0 41.680798336914414 11.495160038418144 -1.26443122882004e-06 0 0 0
9697 1 2 0 46.873890876588725 7.723971045075596 -2.229173277992931 0 0 0
9681 1 2 0 42.987402653906734 12.526248819314382 -2.1448384247398176 0 0 0
9708 1 2 0 52.11692587806467 7.444703900490512 -1.4700185123759801 0 0 0
9695 1 2 0 48.05842829583982 10.087509026403435 -2.2197805738342757 0 0 0
6862 1 1 0 49.58596401052077 10.483875278401692 -1.6459626689551734 0 0 0
6870 1 1 0 52.28251896188047 9.082916320957247 -1.5192203930729606 0 0 0
9696 1 2 0 50.92226267789434 9.684331907949355 -2.268904193330829 0 0 0
9692 1 2 0 49.91897077800605 12.017247706428936 -2.150334388914559 0 0 0
9710 1 2 0 49.514526919653036 7.108796603755966 -2.1962556159725253 0 1 0
13307 1 2 0 49.54928516115297 10.280988169647383 -8.09379948940955e-07 0 0 0
9721 1 2 0 56.37434363057163 8.156063325425292 -2.2252850963859543 0 0 0
9709 1 2 0 53.749084796383336 9.229633354080685 -2.280056513708495 0 0 0
6877 1 1 0 55.29546368392401 9.294214432201798 -1.65310838759926 0 0 0
9718 1 2 0 55.8185082706247 10.735474162110398 -2.2355498590916927 0 0 0
6876 1 1 0 56.373491445739525 12.158165430874059 -1.6462765843924096 0 0 0
13336 1 2 0 57.2515989368152 6.921450661365275 5.2790695481204425e-08 0 1 0
6891 1 1 0 57.25197119122967 6.8648900056384194 -1.6496034583947667 0 1 0
9720 1 2 0 57.8982007565238 12.259877707067115 -2.251722445104596 0 0 0
13321 1 2 0 56.38677841423669 12.16920128898908 4.6739017585322155e-08 0 0 0
9728 1 2 0 62.19838398396904 9.079521632074176 -2.240274669342613 0 0 0
6886 1 1 0 62.62860514680303 7.592437631980539 -1.64769993249918 0 0 0
6881 1 1 0 61.785777507076 10.56655441785787 -1.6499781501503068 0 0 0
9726 1 2 0 60.309204849474234 11.123901453613039 -2.176146164282737 0 0 0
9727 1 2 0 62.884357213054955 11.60625160348042 -2.309761579785148 0 0 0
13326 1 2 0 61.806844449810725 10.53275341138225 -2.1237204174323047e-07 0 0 0
6882 1 1 0 59.41686924199089 12.429090639435795 -1.6553390521947322 0 0 0
13327 1 2 0 59.467546766908995 12.474066011402666 -2.596617951313981e-07 0 0 0
9736 1 2 0 64.10101716743014 7.0685307277098754 -2.2190242902860606 0 0 0
6894 1 1 0 68.1791210239478 7.118759391183927 -1.6456564142025243 0 0 0
9746 1 2 0 68.27015056258087 8.641052018509642 -2.2349592610531372 0 0 0
9745 1 2 0 68.19198313176668 11.19934454351309 -2.326945795048076 0 0 0
9731 1 2 0 65.53645215483748 11.440470834305275 -2.139324053129137 0 0 0
13339 1 2 0 68.14990944697175 7.021351607082842 -1.1796446203792302e-06 0 0 0
6893 1 1 0 66.98145663064498 12.061168140546933 -1.6358771241298888 0 0 0
6892 1 1 0 69.0289982338955 9.958608972342997 -1.646942567666035 0 0 0
6883 1 1 0 64.20938787025851 12.309743444240647 -1.6616920234795132 0 0 0
9758 1 2 0 73.79098506095369 7.446746997455002 -2.2902053677685243 0 0 0
6900 1 1 0 74.27087607586667 8.880962827489425 -1.6509497998188432 0 0 0
9747 1 2 0 70.57414451424148 9.964450921240047 -2.21805008021172 0 0 0
6897 1 1 0 71.93769398290655 10.67619000252402 -1.6351520885337492 0 0 0
9754 1 2 0 73.24243331175201 9.980324659869972 -2.3218725085922265 0 0 0
13342 1 2 0 72.06650910400329 10.491974495692599 -4.2347951441254535e-07 0 0 0
9753 1 2 0 72.01112697893505 12.243575247954842 -2.185769232677299 0 0 0
6909 1 1 0 78.48402644357242 7.399661718902212 -1.5837375549752128 0 0 0
9771 1 2 0 79.07468926478523 8.968261847972775 -2.0716854145136385 0 0 0
9759 1 2 0 75.76828382379519 9.435687929063649 -2.1557236516862415 0 0 0
6903 1 1 0 76.29084085682926 10.936252667137135 -1.6495829722734676 0 0 0
9764 1 2 0 77.81079486768344 11.248720445496332 -2.1939590516346517 0 0 0
6908 1 1 0 79.24695574728092 10.664365930235025 -1.627800822276527 0 0 0
13348 1 2 0 76.2800621530116 10.96690063545335 -7.06888202195107e-07 0 0 0
9763 1 2 0 75.43033647229277 12.205852339332303 -2.2870148541189557 0 0 0
6913 1 1 0 83.13153709341988 8.449049937679007 -1.6517558707514481 0 0 0
9781 1 2 0 82.06466607182875 7.337582319339018 -2.277377512086061 0 0 0
9782 1 2 0 84.61102875650812 7.915181304085899 -2.208225269574841 0 0 0
9777 1 2 0 82.89219682709415 10.045480582124323 -2.1437712737787202 0 0 0
6911 1 1 0 84.04842420778125 11.18924883022173 -1.655467012628347 0 0 0
9778 1 2 0 85.42514984806544 10.528867431741853 -2.2846047454579597 0 0 0
13358 1 2 0 83.03580266295319 8.438882305027933 -2.2264398893033743e-06 0 0 0
9772 1 2 0 80.21293593075957 12.059751253652859 -2.136075273841397 0 0 0
13356 1 2 0 83.9550087162277 11.28185314178762 8.22730723063736e-08 0 0 0
6920 1 1 0 89.0999050038079 8.626249032365351 -1.6313318914060506 0 0 0
9792 1 2 0 89.42999537601406 7.096425787229448 -2.1261758633094465 0 0 0
6916 1 1 0 86.91730985437692 10.49681513309973 -1.6327790891400775 0 0 0
9786 1 2 0 87.55689216397856 9.039784728245756 -2.072051281162831 0 0 0
9793 1 2 0 90.16241409043677 9.620594856670179 -2.3625452822447484 0 0 0
6924 1 1 0 91.07459555867604 10.792774019675862 -1.6448948309522353 0 0 0
9785 1 2 0 87.8416294523115 11.6994360017004 -2.274248423105081 0 0 0
13361 1 2 0 86.84361098232868 10.676776671640434 -1.2341499563225001e-07 0 0 0
9788 1 2 0 90.52186329963479 12.267045463275249 -2.1215184998978924 0 0 0
13365 1 2 0 89.23622244501453 8.736721599735423 -1.078321306614252e-07 0 0 0
9799 1 2 0 93.27538408306508 7.956020035055343 -2.215600076129346 0 0 0
9798 1 2 0 92.56078549135643 10.564188066869347 -2.258434384217123 0 0 0
6925 1 1 0 93.67369258545028 9.489991712038995 -1.6497098993729624 0 0 0
9800 1 2 0 94.9931385900811 10.404183205483184 -2.120394582203639 0 0 0
6932 1 1 0 95.2305029368734 12.009657834578771 -1.6453584565607433 0 0 0
9802 1 2 0 95.55399319710433 7.01686751026714 -1.9896997206920013 0 1 0
13370 1 2 0 93.6681247176459 9.364082505495002 1.377025042383344e-06 0 0 0
9812 1 2 0 96.78141672324259 12.20368656301148 -2.204190154952145 0 0 0
6936 1 1 0 99.09563155586659 8.48109168012499 -1.6555378118091708 0 0 0
9817 1 2 0 98.3099942681616 7.135972023339499 -2.255574958507182 0 0 0
9093 1 2 0 100.67436948117171 8.53052423347251 -2.2045593786260533 0 0 0
6483 1 1 0 101.99435359122866 9.392426715566703 -1.644560141439066 0 0 0
9816 1 2 0 98.1910452605036 9.753222504189852 -2.238399160396856 0 0 0
6935 1 1 0 98.0390650831286 11.284164182414226 -1.6315118811736085 0 0 0
9091 1 2 0 101.83190773089767 10.955388960916082 -2.156822488247537 0 0 0
12928 1 2 0 102.01681435421959 9.276222321275332 -2.909569639237228e-07 0 0 0
13380 1 2 0 97.87354521829609 11.164323321200794 -1.2741718992487507e-07 0 0 0
9262 1 2 0 99.4130521876992 12.074640378065181 -2.0609124202962152 0 0 0
9294 1 2 0 12.11887798427139 14.400317157627123 -2.226613851861697 0 0 0
6604 1 1 0 12.778069753462152 13.015838263862417 -1.648599353040986 0 0 0
9288 1 2 0 9.612271240488127 15.421078707495933 -2.2655702794645523 0 0 0
6603 1 1 0 11.139203700552304 15.585489685378938 -1.642174363162336 0 0 0
9295 1 2 0 11.995342107467186 16.927272916871658 -2.1726319641188243 0 0 0
6647 1 1 0 13.564740621082832 17.14137152364122 -1.635435199343843 0 0 0
9296 1 2 0 14.314879495150075 12.898892235553584 -2.281821279545266 0 0 0
6650 1 1 0 15.819404955468242 13.167451217133253 -1.6401027324682234 0 0 0
9366 1 2 0 16.674648696802706 14.529498717314068 -2.079831314765805 0 0 0
9362 1 2 0 14.745233216877672 16.154387307938133 -2.251386797239172 0 0 0
6651 1 1 0 16.29867282139961 16.080122433978055 -1.640037488171974 0 0 0
9368 1 2 0 17.437015126524916 17.119133334352306 -2.2627594294764193 0 0 0
6981 1 1 0 18.800398542603546 17.858926431807824 -1.6494375847331337 0 0 0
9632 1 2 0 19.44438763766409 13.10260134486528 -2.1804093792564556 0 0 0
6833 1 1 0 21.005530015857975 13.294120358447357 -1.647375722627412 0 0 0
9646 1 2 0 21.454430774392762 14.748724346513457 -2.2635091123007562 0 0 0
6942 1 1 0 21.477065369701716 16.27510329162817 -1.6490477997050141 0 0 0
9826 1 2 0 20.17134190604704 17.11587026803371 -2.2270243893849346 0 0 0
9825 1 2 0 22.9093305712231 16.857487545095953 -2.2210448701066063 0 0 0
6943 1 1 0 24.185760815522954 17.737373359741657 -1.6459353747338632 0 0 0
13388 1 2 0 24.277160046147248 17.767292205831023 -2.922439852057198e-06 0 0 0
6837 1 1 0 26.176207731871816 12.699978165915784 -1.649474878407397 0 0 0
9653 1 2 0 26.528438297389165 14.302346116158047 -2.1509639484544723 0 0 0
6841 1 1 0 26.82173661786964 15.92904772084773 -1.649342132668864 0 0 0
9661 1 2 0 25.595081091216123 16.97501045426307 -2.183608774124698 0 0 0
9660 1 2 0 28.308633190234076 16.623584131061776 -2.125946658689413 0 0 0
6842 1 1 0 29.772277303160738 17.38179527550708 -1.6497040693269824 0 0 0
13282 1 2 0 26.15527182126031 12.743007061079084 -1.263625509416939e-06 0 0 0
13287 1 2 0 29.808513789075715 17.437723595240858 -1.3927450776515377e-06 0 0 0
13286 1 2 0 26.804954626708902 15.883394344353663 -3.0343711900140286e-06 0 0 0
9656 1 2 0 32.65961721142031 13.693454028582524 -2.146515811273822 0 0 0
9658 1 2 0 31.057488732059152 16.318054724119076 -2.12637753771687 0 0 0
6840 1 1 0 32.37481181788766 15.306602498317673 -1.6445030154321472 0 0 0
9659 1 2 0 33.77976543864259 15.981345051775014 -2.2096678504102876 0 0 0
6851 1 1 0 35.19857329324933 16.619171254435923 -1.6521841777735493 0 0 0
9677 1 2 0 35.03909541501568 18.172459164511032 -2.2391163369844236 0 0 0
9673 1 2 0 37.878853423295304 13.398541447095155 -2.1582571323656308 0 0 0
9675 1 2 0 36.55812394221306 15.814775879880779 -2.227091363643268 0 0 0
6850 1 1 0 37.88408338075072 14.972378431924945 -1.6434499097092032 0 0 0
9676 1 2 0 39.34024854641665 15.464061501589974 -2.271900479254305 0 0 0
6856 1 1 0 40.84043416082187 15.737503429416101 -1.6367117426795874 0 0 0
9685 1 2 0 41.02871071070752 17.27292216116787 -2.253206855291366 0 0 0
6855 1 1 0 43.50224967028554 14.027782049340543 -1.6400390539587988 0 0 0
9683 1 2 0 42.23784256290429 14.989894510305573 -2.1697656482465706 0 0 0
9684 1 2 0 45.05929213501192 14.350560325789406 -2.2330141785906683 0 0 0
6861 1 1 0 46.63247033825502 14.58789877790176 -1.654046536993502 0 0 0
9836 1 2 0 43.76504227707707 17.571172854125436 -2.2257222089716677 0 0 0
9704 1 2 0 46.12136001461133 17.41053383862739 -1.280309639720525 0 0 0
13300 1 2 0 43.61520523602488 14.131607238557445 9.07082775544664e-07 0 0 0
6949 1 1 0 42.30485289946846 18.076699020016928 -1.6276198518022982 0 0 0
13394 1 2 0 42.168735645878634 17.781085778033667 -3.13470367884706e-07 0 0 0
9691 1 2 0 47.70036963860954 13.369761386453511 -2.085663992869137 0 0 0
6860 1 1 0 49.325424429237835 13.465503138378637 -1.63998004165034 0 0 0
9694 1 2 0 47.63309986367909 15.810459634793816 -2.301775579694655 0 0 0
6866 1 1 0 51.71781284932912 15.422610406013856 -1.6499861531353341 0 0 0
9693 1 2 0 50.4003162344461 14.595374883707139 -2.25218653069765 0 0 0
6867 1 1 0 47.73824857045928 17.251989635387126 -1.4827067433369918 0 0 0
9701 1 2 0 51.57138056865185 16.9826851677686 -2.2346023997733604 0 0 0
13312 1 2 0 48.52723879189332 17.078044056015056 -1.8762884492170325e-07 0 0 0
13313 1 2 0 52.471683514397455 18.12399965767489 -3.663002569704889e-08 0 0 0
9719 1 2 0 55.40404505722456 13.361874496639402 -2.2245802750786767 0 0 0
6878 1 1 0 54.747693036217655 14.76903950299189 -1.6535484492569135 0 0 0
9702 1 2 0 53.18084559707215 14.834759385302819 -2.205793758566224 0 0 0
9722 1 2 0 55.727053244256325 15.981466292136103 -2.2633288025685276 0 0 0
6953 1 1 0 56.28309279935993 17.33843010622786 -1.492859742004741 0 0 0
13398 1 2 0 56.90715732765868 16.906391171270965 -2.923886457750931e-07 0 0 0
13323 1 2 0 54.75564976728689 14.822954577090819 -8.728203356045118e-08 0 0 0
9842 1 2 0 55.00241334764293 18.33515003308924 -1.293209180057137 0 0 0
9843 1 2 0 57.37985806932034 18.24573679783112 -2.3590118772282738 0 0 0
9729 1 2 0 59.87989334450316 13.896711622329326 -2.2941245918896938 0 0 0
6884 1 1 0 60.70463541099524 15.076884794372145 -1.4977622913743787 0 0 0
9732 1 2 0 62.22466177491852 14.474690286724595 -1.3179767249305676 0 0 0
9733 1 2 0 60.8681195636895 16.48152855805123 -2.3642209945408235 0 0 0
13329 1 2 0 60.00547838109377 15.354957666210103 -3.5449522083733456e-07 0 0 0
6955 1 1 0 61.170226724075775 17.870649573509073 -1.4951321187372364 0 0 0
9730 1 2 0 64.44657871816652 13.820359569162074 -2.3343167099636073 0 0 0
9748 1 2 0 67.06495999488057 13.67039828004812 -2.0654560580375647 0 0 0
6885 1 1 0 63.75608875839345 15.048189046603499 -1.4798484770993692 0 0 0
6899 1 1 0 68.45556067923856 14.46249322507172 -1.654760998417128 0 0 0
9757 1 2 0 68.63207088484663 15.976010579354273 -2.281266666307141 0 0 0
9734 1 2 0 63.803086923227426 16.566012687694787 -2.160514194423476 0 0 0
6962 1 1 0 67.85286931176704 17.287086910133265 -1.6486637323866453 0 0 0
9854 1 2 0 66.34008652415599 17.161842518835485 -2.277286806644046 0 0 0
13344 1 2 0 68.59548885807905 14.580959012928343 -4.336197379204428e-07 0 0 0
13330 1 2 0 64.52223473706529 15.150205390561307 -7.603806330949827e-07 0 0 0
13407 1 2 0 67.88769338750727 17.29291208449022 -4.356231049109587e-07 0 0 0
6961 1 1 0 64.932917744778 17.682768321281596 -1.6346085485033819 0 0 0
6898 1 1 0 70.96764784785032 13.321245993464423 -1.5108670636816963 0 0 0
9755 1 2 0 69.5936776772021 13.49555472887253 -2.3774868977101935 0 0 0
9756 1 2 0 71.51053194858342 14.857994657949833 -1.4192998387687061 0 0 0
6905 1 1 0 73.0140981136289 15.485883690446666 -1.520519297996292 0 0 0
9767 1 2 0 72.80128292467231 16.869224551326845 -2.376495354565493 0 0 0
9765 1 2 0 73.96937269195676 14.399569688022629 -2.2979712931643133 0 0 0
13343 1 2 0 70.60600566011692 12.723743039091799 -1.8815015484438793e-07 0 0 0
7000 1 1 0 72.41156726009324 18.284803911094514 -1.6172377350573646 0 0 0
13445 1 2 0 72.13230526608118 18.041595603383122 5.0289418910459054e-08 0 0 0
6904 1 1 0 75.33493428211656 13.723333330847778 -1.648239336419288 0 0 0
9766 1 2 0 76.54578606420921 14.74971217316047 -2.178112046570811 0 0 0
6965 1 1 0 76.58220784093174 16.305506643026863 -1.5857307941909042 0 0 0
9860 1 2 0 78.04277028753485 16.984076039016507 -1.8044891504660763 0 0 0
9783 1 2 0 79.803729495156 15.090906409610165 -2.2169784886775106 0 0 0
6966 1 1 0 79.64104668476277 16.651762135702374 -1.5795816581633508 0 0 0
13410 1 2 0 76.18012605648352 16.17079262793335 -4.941025988842393e-07 0 0 0
9861 1 2 0 75.54018604052145 17.404587077047807 -2.282783865882709 0 0 0
6914 1 1 0 80.54967525110246 13.670001642191725 -1.6120601412836157 0 0 0
9776 1 2 0 84.134774391884 12.7352428908059 -2.271752698578619 0 0 0
9779 1 2 0 82.1023750086643 14.201611850959587 -1.9115840527191348 0 0 0
6912 1 1 0 83.72751647294673 14.220582439538127 -1.6118750221220794 0 0 0
9780 1 2 0 84.528666883212 15.594866605786041 -2.1972050644831236 0 0 0
9862 1 2 0 80.20534828532195 18.1293955703589 -2.2120080810655667 0 0 0
13411 1 2 0 80.16532122973557 16.591616218336434 2.402328199721817e-07 0 0 0
6917 1 1 0 88.99153622514763 12.691678064964258 -1.6449601421767948 0 0 0
9789 1 2 0 87.15412093860894 16.131558642301464 -2.263323123580976 0 0 0
6918 1 1 0 88.577945531987 15.615216551439815 -1.64973953837183 0 0 0
9787 1 2 0 88.73927383372289 14.135627137534728 -2.3362898557661715 0 0 0
9790 1 2 0 89.87632151946457 16.466800947978555 -2.2054889524364962 0 0 0
6919 1 1 0 85.72467420894539 16.67891066778562 -1.6474880765564208 0 0 0
13362 1 2 0 88.8909620115436 12.743665579306759 -3.978868242246244e-07 0 0 0
9791 1 2 0 85.82341184767012 18.27311561446888 -2.173635774863211 0 0 0
9811 1 2 0 94.36415949026157 13.324519795293124 -2.2452959273159925 0 0 0
9813 1 2 0 92.323476783233 15.138664467095909 -2.1748822068788654 0 0 0
6933 1 1 0 93.87986795108344 14.812698304288931 -1.6467513093379698 0 0 0
9814 1 2 0 94.75542957946219 16.13107794129811 -2.184539276424605 0 0 0
6934 1 1 0 91.43644160341852 16.446758628473674 -1.6471452677487144 0 0 0
6973 1 1 0 95.72797394602168 17.371121095716614 -1.6493707042718004 0 0 0
13418 1 2 0 95.67372716385142 17.471465295500536 -5.666809996008171e-07 0 0 0
9815 1 2 0 92.07396028023665 17.868508029124545 -2.2091148867764163 0 0 0
6582 1 1 0 99.90890673220248 13.590231359012883 -1.6404968006168705 0 0 0
9092 1 2 0 101.49373719749025 13.646974634814923 -2.1836882040197114 0 0 0
9261 1 2 0 98.81250340060072 14.631665991002338 -2.337352461293441 0 0 0
9263 1 2 0 97.22302859522132 16.94844088229664 -2.2584843185114165 0 0 0
6583 1 1 0 98.35591587652155 16.00518091534794 -1.5158267992265366 0 0 0
9259 1 2 0 99.76760256313372 16.802468709969045 -1.452509773571135 0 0 0
13028 1 2 0 97.793419923762 15.602811094663616 -5.313276093829026e-07 0 0 0
6581 1 1 0 100.85364226140831 17.992659638302843 -1.526566908809104 0 0 0
6648 1 1 0 10.701327881488973 20.45752281612043 -1.5026785720047995 0 0 0
9357 1 2 0 9.260756060187639 20.16192551163174 -2.2776449857285996 0 0 0
9363 1 2 0 11.980013880579031 19.812548619623133 -2.343578627478782 0 0 0
6649 1 1 0 13.49453005336487 20.005145360420634 -1.6447209566677594 0 0 0
9364 1 2 0 11.165586621281584 22.028260893636347 -1.3600823399496162 0 0 0
6690 1 1 0 11.898135104738223 23.502935376580574 -1.5097491946293091 0 0 0
9428 1 2 0 13.423177155675052 23.557724480267332 -2.190645561257918 0 0 0
13135 1 2 0 12.062130216617062 24.188106382983452 -2.9371570192350775e-06 0 0 0
13136 1 2 0 9.345702516859738 23.868861080580487 -3.3681575485568775e-06 0 0 0
9361 1 2 0 14.22519142742958 18.596833945762558 -2.057807908646502 0 0 0
9365 1 2 0 14.49806031580131 21.172835582812613 -2.2394252350446346 0 0 0
9884 1 2 0 18.802771906792067 19.43777364337215 -2.169089057409634 0 0 0
6692 1 1 0 14.777116712271138 22.705804222461165 -1.6514816411295976 0 0 0
9932 1 2 0 18.85487248926246 22.120498060537667 -2.208370983758033 0 0 0
13137 1 2 0 14.813113014009145 22.773713374438703 -3.626844576633176e-06 0 0 0
9430 1 2 0 16.269821992287984 23.18966252646446 -2.2156957382158704 0 0 0
7049 1 1 0 17.856246158900873 23.349251626826828 -1.6523189581543782 0 0 0
13494 1 2 0 17.809211454128324 23.320934483679224 -5.5034963004798124e-06 0 0 0
7012 1 1 0 19.665300727799092 20.76457653951457 -1.6465706463363639 0 0 0
9930 1 2 0 21.23497471979872 20.570111175274647 -2.202759062518037 0 0 0
9827 1 2 0 23.820921257292127 19.300924966341665 -2.173374249202039 0 0 0
7011 1 1 0 22.817271928830596 20.548777008693698 -1.647839466240836 0 0 0
9931 1 2 0 23.43843981773927 21.981850396309458 -2.2004818232681487 0 0 0
13456 1 2 0 22.78992241007343 20.493402228271123 -3.4459258461923437e-06 0 0 0
13457 1 2 0 19.69822734338315 20.84731479558965 -3.5581815826573462e-06 0 0 0
7014 1 1 0 24.36736346694404 23.234698054025742 -1.649837402098519 0 0 0
13459 1 2 0 24.413079980547923 23.317170542875157 -3.6541945780372797e-06 0 0 0
9662 1 2 0 29.867214881730927 19.070864389609135 -2.1295710691615244 0 0 0
6985 1 1 0 29.73411065912091 20.75083452477834 -1.647684817364835 0 0 0
9933 1 2 0 25.893537486072905 22.879992444126664 -2.2205820062549315 0 0 0
9891 1 2 0 28.226383544690865 21.34149628365567 -2.15522348557891 0 0 0
7013 1 1 0 27.45185256549706 22.73764132219587 -1.650507790736947 0 0 0
13458 1 2 0 27.40974793114583 22.714364061621303 -3.4679456495317984e-06 0 0 0
9934 1 2 0 28.226446521850658 24.123134848568974 -2.219810386917351 0 0 0
6984 1 1 0 35.65405227754385 19.581594439769415 -1.6471270194899532 0 0 0
9888 1 2 0 35.08649995345872 21.023373653864 -2.2622898802175624 0 0 0
9890 1 2 0 30.733259571761813 22.07780273849248 -2.129289770478811 0 0 0
9892 1 2 0 33.136847382630776 22.47258381217177 -1.5437754956641536 0 0 0
6987 1 1 0 34.76884501910425 22.494941281996834 -1.5451015528305578 0 0 0
13432 1 2 0 35.427293405507726 22.499541117670216 -2.3349768287132635e-06 0 0 0
6986 1 1 0 31.747400964305413 23.345334358011687 -1.519010469030607 0 0 0
9894 1 2 0 35.267257543054946 23.919563344404843 -2.2863075326591757 0 0 0
9889 1 2 0 37.21203136062516 19.49808452427177 -2.2066019890980484 0 0 0
6989 1 1 0 38.26710119945999 20.611008550474835 -1.6492917559765523 0 0 0
9895 1 2 0 39.69597255587102 20.190474511620508 -2.345899616619086 0 0 0
6988 1 1 0 41.084344983652535 20.571040786549055 -1.572588412756064 0 0 0
9897 1 2 0 37.8997863273233 22.151433927651755 -2.1853695789014576 0 0 0
9896 1 2 0 41.40611137907845 22.17034177155732 -1.6839503289252324 0 0 0
13433 1 2 0 40.9052526882603 20.151708019907176 -6.484825148096227e-07 0 0 0
13434 1 2 0 38.24180197234344 20.507376897583253 4.4158526966295063e-07 0 0 0
7056 1 1 0 38.64343105905892 23.466871607177882 -1.5086784513251612 0 0 0
9994 1 2 0 39.8579928987776 24.097374222613908 -2.426833836097393 0 0 0
6950 1 1 0 44.947475512681535 18.477983171950935 -1.5037306761526983 0 0 0
9837 1 2 0 42.286190679360494 19.637309168017293 -2.193317110431569 0 0 0
9838 1 2 0 45.471040039981915 19.810065967438565 -2.3227871748800304 0 0 0
7017 1 1 0 42.89823295438431 22.901229234333027 -1.5637246835836491 0 0 0
9902 1 2 0 43.92866527151977 21.935573533400415 -2.362542097079067 0 0 0
6992 1 1 0 45.27496768507086 21.29769226646295 -1.646563340321717 0 0 0
9901 1 2 0 46.50573554430838 22.243480648923732 -2.147830815592052 0 0 0
6994 1 1 0 46.64733174635807 23.81962942683117 -1.637084632347228 0 0 0
13439 1 2 0 46.64584679005835 24.066324900869713 1.3805412710943751e-07 0 0 0
13462 1 2 0 43.38425395277578 23.102942219626247 -3.4088689761811583e-07 0 0 0
9703 1 2 0 48.310932307810226 18.570982742842332 -2.3148678803350973 0 0 0
6868 1 1 0 51.930529509804536 18.45146361534288 -1.5466769422117126 0 0 0
6869 1 1 0 49.07072731721625 19.8474106871229 -1.5303992436477092 0 0 0
9705 1 2 0 50.64535964814599 19.44466796139939 -1.5000175154660893 0 0 0
9707 1 2 0 49.00807740954067 21.318677308542803 -2.2917215309662766 0 0 0
6993 1 1 0 49.31055589810281 22.833558333611133 -1.6607765574805047 0 0 0
13438 1 2 0 49.300807426583916 22.71701730582864 6.602217291443274e-07 0 0 0
9904 1 2 0 50.804981727198324 23.343208640082263 -2.196015257718677 0 0 0
9903 1 2 0 48.22191749811846 24.025943241162484 -2.1656559042465475 0 0 0
6954 1 1 0 54.35356994402755 19.829020733428994 -1.4929070379483016 0 0 0
9706 1 2 0 53.00679254508752 19.42534775327055 -2.375007533073174 0 0 0
9844 1 2 0 55.35433865830755 20.930022844036042 -2.2344357603095872 0 0 0
7018 1 1 0 55.870576103503275 22.40497112806974 -1.6455409830744643 0 0 0
9940 1 2 0 57.37220474877167 22.878951163982865 -2.1591549031260273 0 0 0
13401 1 2 0 57.64495451819453 19.668879766139533 2.7067698520548136e-07 0 0 0
9939 1 2 0 54.86690294936831 23.5444664304597 -2.2689497632049265 0 0 0
9845 1 2 0 59.69985101009122 18.490212473114866 -1.2708666896712988 0 0 0
6956 1 1 0 58.33549892351779 19.310968012365826 -1.5017515881844374 0 0 0
9847 1 2 0 58.76672111292981 20.704429357626847 -2.2834655874723016 0 0 0
9846 1 2 0 62.03891206430329 19.03408888666405 -2.2827254702313104 0 0 0
6999 1 1 0 63.25478301235881 19.97006817110118 -1.6500604522193294 0 0 0
7023 1 1 0 58.81366894517968 22.242144313157414 -1.646837056731253 0 0 0
9912 1 2 0 63.20665501521417 21.490175734156715 -2.266197818984783 0 0 0
9947 1 2 0 60.05362749269859 23.147233277917632 -2.2610434769740584 0 0 0
9953 1 2 0 62.61810630973122 24.06241225456482 -2.1678123089145216 0 0 0
9855 1 2 0 64.63544380615087 19.21279767822086 -2.184340916653809 0 0 0
9856 1 2 0 68.47112441541707 18.689406213525288 -2.2266860800448165 0 0 0
7027 1 1 0 63.748820374381474 22.938450939253368 -1.6539463569137136 0 0 0
13472 1 2 0 63.806978257040676 22.957205703340165 -2.927538213853333e-07 0 0 0
9952 1 2 0 65.30007724758399 23.12597456914745 -2.2524034983130385 0 0 0
9954 1 2 0 68.21563632441935 23.17254988386062 -2.227049058716285 0 0 0
7029 1 1 0 66.74398840543222 23.66045277381694 -1.6077368335515707 0 0 0
7026 1 1 0 69.73856484616486 19.563587559664054 -1.6503189743987108 0 0 0
9914 1 2 0 71.08332222714402 18.89917559518191 -2.3269293211703777 0 0 0
9913 1 2 0 73.6468876599832 19.331680217793703 -1.8918183420288281 0 0 0
9951 1 2 0 69.59817692628182 21.0566311705584 -2.2799715604193356 0 0 0
7028 1 1 0 69.67098729475924 22.571707150833582 -1.6517756834322546 0 0 0
13473 1 2 0 69.66841756436305 22.685161332914774 7.846047047712032e-08 0 0 0
9955 1 2 0 71.16105189647273 23.121009323328227 -2.1891276274515086 0 0 0
7071 1 1 0 72.4776724147185 24.007876429929066 -1.6420632353847755 0 0 0
10013 1 2 0 74.02312214683681 23.70187610689047 -2.2199234320510572 0 0 0
13516 1 2 0 72.53345325361599 23.856037324328806 2.6141614340480245e-08 0 0 0
7001 1 1 0 75.21786312161568 18.9038452138136 -1.6196817163666872 0 0 0
9915 1 2 0 76.02015869691981 20.1395590154883 -2.3263210288239873 0 0 0
9960 1 2 0 78.53642492000131 20.55234526002097 -2.1998210375741154 0 0 0
7033 1 1 0 79.86005993702375 19.687651753744348 -1.648651859421776 0 0 0
7034 1 1 0 77.10386280747439 21.188959248183586 -1.6512087182707667 0 0 0
9962 1 2 0 76.62630109625148 22.695304131410634 -2.1952379130650295 0 0 0
13478 1 2 0 79.75915050172767 19.596214379609282 -7.868332484055596e-07 0 0 0
13479 1 2 0 77.14257253189157 21.26309501091587 -1.6216989497982488e-07 0 0 0
7072 1 1 0 75.60027312647314 23.905322381164304 -1.6503621856533894 0 0 0
13517 1 2 0 75.54787935797495 23.887248342755484 -2.921588970054767e-07 0 0 0
9920 1 2 0 85.2353664298943 20.752662255587314 -2.243315393668389 0 0 0
9961 1 2 0 81.07996889727409 20.688627798221923 -2.168486238838948 0 0 0
9963 1 2 0 83.07381826590007 22.343516498286036 -2.2649037211029026 0 0 0
7036 1 1 0 81.55290965593734 22.189385962669924 -1.6476789965221628 0 0 0
7035 1 1 0 84.5805952111698 22.13297758480162 -1.644673330099939 0 0 0
13481 1 2 0 81.52013267800702 22.24065360976149 -2.517644817462012e-07 0 0 0
9964 1 2 0 85.4988384260839 23.403859117234262 -2.165773994187713 0 0 0
9965 1 2 0 80.68360473627061 23.495526715171852 -2.209705160272903 0 0 0
7004 1 1 0 86.41410118071202 19.757254608403777 -1.6468685431842174 0 0 0
9919 1 2 0 87.86013942476875 20.44633419112892 -2.182079588586345 0 0 0
9874 1 2 0 90.42857210090573 20.072211524075612 -2.2569572578463566 0 0 0
7005 1 1 0 89.30344944478955 21.1320950362485 -1.6504605942795159 0 0 0
9921 1 2 0 89.7967501552153 22.66062221118397 -2.1795169433715116 0 0 0