LAMMPS data file via write_data, version 2 Aug 2023, timestep = 226, units = metal

15552 atoms
2 atom types

7.608920364424325 196.48348474048123 xlo xhi
6.814692739774166 170.36262768074525 ylo yhi
-100 100 zlo zhi

Masses

1 28.085
2 15.999

Atoms # full

6601 1 1 0 7.691157849737605 7.689495724525949 -1.6352888132024996 0 0 0
9281 1 2 0 9.069556918413424 7.023800352747936 -2.253164169406325 0 0 0
9292 1 2 0 11.559661182710363 7.802804561964795 -2.17552720718087 0 0 0
9279 1 2 0 8.233412544627754 11.740758734470631 -2.1517498287544794 0 0 0
9286 1 2 0 10.506249029625408 10.405749457532881 -2.2174620168291836 0 0 0
6608 1 1 0 11.679448062573972 9.376243375336745 -1.6449776215558707 0 0 0
6604 1 1 0 9.812560432673896 11.802402625032173 -1.6439687826580658 0 0 0
9293 1 2 0 13.071948342497505 10.037046134995501 -2.2117896293698527 0 0 0
13081 1 2 0 7.832305397126625 7.815864316851795 -6.623244017502084e-07 0 0 0
13084 1 2 0 9.900753238697941 11.832780300620533 -6.066246525792856e-08 0 0 0
6841 1 1 0 16.049442696048104 7.203296466349999 -1.6472356509379105 0 0 0
9324 1 2 0 15.219712496850804 8.58501222434723 -2.16081358016642 0 0 0
9654 1 2 0 17.556949722963623 7.5873761090197105 -2.224003841917521 0 0 0
6628 1 1 0 14.619335977696753 10.0724639009603 -1.6421347846037861 0 0 0
9323 1 2 0 15.13319380329518 11.591796055104183 -2.1783924025943944 0 0 0
6846 1 1 0 19.046287625133225 7.989554495508805 -1.6459045707997906 0 0 0
6849 1 1 0 23.70226458922105 7.171892104473044 -1.6455606034368124 0 0 0
9663 1 2 0 23.6176798496873 8.716746202427275 -2.2270805994903142 0 0 0
6845 1 1 0 20.507015813165715 10.734090006940965 -1.6473739034618944 0 0 0
9658 1 2 0 19.70251698972335 9.396836764769247 -2.2220803404302463 0 0 0
9660 1 2 0 22.093583585140625 10.869730969228698 -2.1735388380202405 0 0 0
6848 1 1 0 23.573295319206053 10.272611647509096 -1.6475105935350896 0 0 0
9659 1 2 0 19.600011609488224 11.99188752962857 -2.225281916397922 0 0 0
13329 1 2 0 23.67499635489202 7.21291604093654 -2.6871540436966123e-06 0 0 0
13328 1 2 0 23.60941875251665 10.30216435794686 -3.420517659406965e-06 0 0 0
13325 1 2 0 20.52356589302159 10.71395286754063 -3.3097729546132845e-06 0 0 0
13326 1 2 0 19.021146811857403 8.042346098573132 -7.872888084869886e-07 0 0 0
6856 1 1 0 28.839288175721514 7.449960518967905 -1.6449454466153386 0 0 0
9675 1 2 0 28.54399175528228 8.959460927343736 -2.2100406828006505 0 0 0
9664 1 2 0 24.928671710444643 11.095957574091145 -2.1980482254238956 0 0 0
9669 1 2 0 27.789724373696842 11.429163368251942 -2.1891466264928474 0 0 0
6855 1 1 0 29.030395578322327 10.432378696321786 -1.6424178751286003 0 0 0
6851 1 1 0 26.27901168642176 11.94313076066799 -1.6481511529629467 0 0 0
13331 1 2 0 26.27518518245826 11.876102387150462 -2.9106203978821627e-06 0 0 0
13336 1 2 0 28.81420195761611 7.460071456901143 -2.9903822604647625e-06 0 0 0
13335 1 2 0 29.062960160370704 10.56411976208754 -3.392575052861911e-06 0 0 0
9681 1 2 0 32.97816076443573 8.91823879392728 -2.188195340561569 0 0 0
6862 1 1 0 33.67010015778981 7.477144332443691 -1.6448469717389265 0 0 0
9688 1 2 0 35.17493336956139 7.044015644556476 -2.2376757399267806 0 0 0
9676 1 2 0 30.62030132868608 10.598479746301768 -2.1729669038017394 0 0 0
6858 1 1 0 32.20054133357056 10.312221126911727 -1.6499319342347742 0 0 0
9680 1 2 0 33.11941913411703 11.591899684311457 -2.2087072092708544 0 0 0
13338 1 2 0 32.17151471234601 10.263700130394685 -3.751737786464668e-06 0 0 0
13342 1 2 0 33.747520363513736 7.591945003622085 -3.173917975259639e-06 0 0 0
9678 1 2 0 30.27584034259725 6.8983788225515825 -2.222509587092583 0 1 0
9704 1 2 0 37.60622157821995 7.871402936892539 -2.1379420623636247 0 0 0
6872 1 1 0 39.17163799665172 7.981292642932976 -1.6485841979954943 0 0 0
9701 1 2 0 39.843184981920636 9.321761774087594 -2.325469078242869 0 0 0
6870 1 1 0 40.433459528004114 10.668186211804175 -1.5953124068464353 0 0 0
9700 1 2 0 39.69450029827296 11.938800503261536 -2.3306896117565103 0 0 0
9702 1 2 0 42.07158611776692 10.837708117677899 -1.7802084821350765 0 0 0
9713 1 2 0 42.387935610526505 7.934421088123594 -2.035899371517712 0 0 0
6878 1 1 0 43.98697387487172 8.042754764865624 -1.6362283300765776 0 0 0
6877 1 1 0 45.20450300955419 10.681106861889521 -1.631572872716215 0 0 0
9711 1 2 0 44.607055688899344 9.355359943212916 -2.3821742740972285 0 0 0
9709 1 2 0 44.39883782306741 12.01059181018132 -2.2289654079583507 0 0 0
9712 1 2 0 46.80848498686739 10.73514758307648 -1.9666574140313946 0 0 0
9728 1 2 0 47.49794814853058 7.46262266397023 -2.2456910292151253 0 0 0
6887 1 1 0 49.04846862993986 7.519557359213076 -1.6533837200890054 0 0 0
9726 1 2 0 49.63879921428079 8.901875220123781 -2.3241382728410613 0 0 0
9717 1 2 0 49.188012974155235 11.67295148889688 -2.2547699622613973 0 0 0
6886 1 1 0 49.95908692872748 10.342970894963706 -1.603942859135765 0 0 0
9727 1 2 0 51.558803081665246 10.562080454535042 -1.825689972500121 0 0 0
6880 1 1 0 47.71562069845312 12.082324081458344 -1.6131218543378407 0 0 0
6893 1 1 0 55.15556984854869 7.015532396409541 -1.646216437040614 0 0 0
9736 1 2 0 54.694912505112335 8.522104585427664 -2.224182335198302 0 0 0
9732 1 2 0 53.92176894109254 11.255962166013381 -2.259176398438004 0 0 0
6892 1 1 0 54.931255405858764 10.07065668181258 -1.6503735566486863 0 0 0
9737 1 2 0 56.414979220579035 10.672227130677047 -2.151223112827699 0 0 0
6889 1 1 0 52.5322060893389 11.869653602370473 -1.5872230990748986 0 0 0
6897 1 1 0 56.88063343700774 12.177255328169474 -1.6412818156877165 0 0 0
13373 1 2 0 55.094656346972705 7.042297113383999 -2.128105063996594e-07 0 0 0
9753 1 2 0 59.14303450448881 7.42769438901622 -2.1703200396382383 0 1 0
6902 1 1 0 60.55921751876889 8.165165623364189 -1.644213069852516 0 0 0
9750 1 2 0 61.151372480870535 9.656658497836302 -2.2096358436657337 0 0 0
6901 1 1 0 62.37379565211514 10.6822417117992 -1.6369442855967207 0 0 0
9754 1 2 0 61.640208455371344 7.0650034888729465 -2.2405832534444308 0 1 0
13382 1 2 0 60.47175232793307 8.285673651534658 -8.471238574247413e-07 0 0 0
13381 1 2 0 62.1615721293073 10.668028738165706 -8.56904858756674e-07 0 0 0
9760 1 2 0 65.34379187640859 7.762134816901195 -2.184732000914425 0 0 0
6907 1 1 0 66.72248472106584 8.491924537738244 -1.6285529717599299 0 0 0
9761 1 2 0 68.14237131448567 7.948543151379951 -2.2532610929309738 0 0 0
9752 1 2 0 63.8682484039757 10.151762096780814 -2.1800079631306857 0 0 0
6906 1 1 0 65.22512278821807 10.95053452970853 -1.6298244538432993 0 0 0
9758 1 2 0 66.56230591320927 10.06742303501116 -2.053873936519713 0 0 0
9773 1 2 0 68.52090379006192 12.19300314713913 -2.233155795527133 0 0 0
13387 1 2 0 66.80285712783878 8.293513291042789 -3.51198303392695e-07 0 0 0
13386 1 2 0 65.01986790565182 11.06605112847498 5.228845186537055e-07 0 0 0
6918 1 1 0 69.64286214225783 8.336513818550577 -1.649242924355029 0 0 0
9779 1 2 0 70.57425376699759 7.093568326169166 -2.224513733718477 0 0 0
9777 1 2 0 70.05228568947882 9.865445864221455 -2.1923837860587745 0 0 0
6917 1 1 0 69.8862114915407 11.435971937251287 -1.646566398646639 0 0 0
13398 1 2 0 69.71376243336047 8.359327474638778 -8.398512799078438e-08 0 0 0
9797 1 2 0 74.77509394689993 7.875611981981744 -2.2413975044421792 0 0 0
6929 1 1 0 75.58306519220368 9.180376651032573 -1.645170555496114 0 0 0
9798 1 2 0 77.14755487669179 9.153047085133577 -2.206509599585224 0 0 0
6937 1 1 0 78.51392269244958 8.403211789989989 -1.644566656212026 0 0 0
9811 1 2 0 78.67648252563485 6.902161908905872 -2.308226601286443 0 1 0
9795 1 2 0 74.80219645680228 10.538160133517946 -2.1797549442378927 0 0 0
6928 1 1 0 75.04397840993313 12.098170896405676 -1.6454849506863243 0 0 0
9803 1 2 0 79.33283678140933 11.785741671745532 -2.228588780573135 0 0 0
13408 1 2 0 75.04361352759 12.180136321993146 -2.6575778318354275e-07 0 0 0
13417 1 2 0 78.44818744008805 8.349140423652726 -7.625660198439697e-08 0 0 0
9809 1 2 0 79.85849582096549 9.205536524117925 -2.149017396858478 0 0 0
9815 1 2 0 83.59904108789486 8.535009976980634 -2.184365732803269 0 0 0
6945 1 1 0 84.56221410623105 7.289001679667243 -1.6463015585760676 0 0 0
6936 1 1 0 80.42191146778195 10.673760041187585 -1.6399549553195274 0 0 0
9810 1 2 0 81.98394040815658 10.758268227454412 -2.2192747120136573 0 0 0
6939 1 1 0 83.41621957576369 10.106674381263346 -1.6488530575343763 0 0 0
9812 1 2 0 84.69822118395467 10.99988320297956 -2.213806985322012 0 0 0
13425 1 2 0 84.56592330010717 7.280198776256304 -2.9228971706008006e-07 0 0 0
9823 1 2 0 86.0968596692632 7.5068116467908474 -2.2305591942189675 0 0 0
6944 1 1 0 87.63765647522786 7.614029961787553 -1.6462030723434087 0 0 0
9821 1 2 0 88.31614064605039 8.997818589839747 -2.225240752623634 0 0 0
9814 1 2 0 87.41677469835622 11.532532209883223 -2.184387521430065 0 0 0
6943 1 1 0 88.63335122454767 10.513941693847242 -1.6473292157706392 0 0 0
9822 1 2 0 90.15863315627487 10.862054255045315 -2.227107631370044 0 0 0
6938 1 1 0 85.90021389183445 11.999370136535811 -1.6487538255166496 0 0 0
13424 1 2 0 87.61267342765929 7.618705375362584 -1.347853074313339e-06 0 0 0
13423 1 2 0 88.65622297168116 10.559486297270102 -2.615999524345914e-07 0 0 0
13418 1 2 0 85.90750868159324 11.989719653080686 2.1455412482395105e-08 0 0 0
9837 1 2 0 93.81178262649496 8.00307160819368 -2.198091823326917 0 0 0
6949 1 1 0 91.67435999214865 11.2360524021613 -1.644976820051457 0 0 0
9831 1 2 0 93.00332530742713 10.408331056282307 -2.2169455423118762 0 0 0
6953 1 1 0 94.26588604396079 9.491594124516212 -1.6451733108237931 0 0 0
9838 1 2 0 95.80160310145084 9.834328037103884 -2.2293864826539846 0 0 0
9844 1 2 0 98.49241312094252 8.865687572997091 -2.2456883101584033 0 0 0
6958 1 1 0 99.76090665786388 8.079499594167132 -1.5104082231534108 0 0 0
9118 1 2 0 101.21299699330258 7.823910931404646 -2.3128236195339507 0 0 0
6957 1 1 0 97.36143381250595 9.946192820197757 -1.6430335182206897 0 0 0
9109 1 2 0 97.99848867322254 11.399758701409219 -2.152151084316956 0 0 0
9102 1 2 0 100.75997900655658 11.012633073147928 -2.226619140510628 0 0 0
6499 1 1 0 99.48959366112432 11.940479542865951 -1.641553678577852 0 0 0
12979 1 2 0 99.4578230748181 11.890165656956285 -2.656444996307631e-07 0 0 0
13437 1 2 0 97.27091652932104 9.781432901539008 -1.0879980552111806e-07 0 0 0
9285 1 2 0 10.507635379629747 13.195368414843271 -2.226738602300921 0 0 0
9287 1 2 0 9.492037841998403 15.683148241329874 -2.23003391208372 0 0 0
6605 1 1 0 10.734408468749978 14.741835364659519 -1.6485731872574885 0 0 0
9288 1 2 0 12.177788379713634 15.35239549682574 -2.1978328645224647 0 0 0
6607 1 1 0 8.357548905397081 16.73458713895232 -1.6464731650840732 0 0 0
13087 1 2 0 8.354205059334069 16.69280586962865 -8.784863047913125e-07 0 0 0
6629 1 1 0 15.573816205995216 13.13667141589872 -1.6470268923113396 0 0 0
9325 1 2 0 17.13660068796433 13.283437814016022 -2.20471556472979 0 0 0
6627 1 1 0 13.69351810946164 15.787845902460775 -1.647474073022632 0 0 0
9321 1 2 0 14.717535338718513 14.520549132385442 -2.1538164250010623 0 0 0
9322 1 2 0 13.947590195065057 17.405486287133275 -2.1553995220504087 0 0 0
6847 1 1 0 18.697646333137182 13.2551337976494 -1.6477616169667888 0 0 0
13109 1 2 0 15.491959390612323 13.135355710293183 -1.8445373253147612e-07 0 0 0
13327 1 2 0 18.687308542595304 13.231446273006823 -4.866245681899589e-07 0 0 0
9662 1 2 0 19.44239448630618 14.590761512130129 -2.2608732663976197 0 0 0
6853 1 1 0 20.226641145655282 15.895203753737782 -1.6476220299487416 0 0 0
9672 1 2 0 21.81286753833838 15.789563084322218 -2.175053302020655 0 0 0
6854 1 1 0 23.24706924048897 16.470101356474373 -1.642913697921645 0 0 0
9673 1 2 0 19.288984728499038 17.176820719957153 -2.1668946812285084 0 0 0
13333 1 2 0 20.258427362184747 15.903614338312627 -3.2350512042654633e-06 0 0 0
13334 1 2 0 23.31590718189503 16.373204679555 -3.4753677175984274e-06 0 0 0
9668 1 2 0 26.107651895404224 13.506426514639902 -2.1886506994613195 0 0 0
9670 1 2 0 24.65529594385995 15.779064215124876 -2.2245316705432994 0 0 0
6852 1 1 0 26.071311074535245 15.075829292295094 -1.6486600954649602 0 0 0
9671 1 2 0 27.46358692886675 15.832970327881974 -2.2026490975071122 0 0 0
6861 1 1 0 28.882258531870338 16.51930446725522 -1.647007655074406 0 0 0
13332 1 2 0 26.06620254882314 15.125931264989374 -3.0435706482739497e-06 0 0 0
13341 1 2 0 28.84560370817939 16.493298957867182 -3.0702086702139336e-06 0 0 0
6859 1 1 0 33.45644414365675 13.115291036080826 -1.6439745568307713 0 0 0
9683 1 2 0 34.86722581408507 13.749054562633404 -2.272126235464708 0 0 0
9684 1 2 0 30.273211634322596 15.793077888260589 -2.2065322063531077 0 0 0
6860 1 1 0 31.831857494840964 15.654024635160583 -1.6443705445904493 0 0 0
9682 1 2 0 32.25222709928494 14.132945682760027 -2.1412982915511853 0 0 0
9685 1 2 0 32.949494518417175 16.745515487202187 -2.2705078422691285 0 0 0
6868 1 1 0 34.15703436693926 17.69838375055443 -1.6354368212029877 0 0 0
13339 1 2 0 33.550884780700805 13.061759134636738 -3.3881543101025173e-06 0 0 0
13340 1 2 0 31.82062586146495 15.784707137766993 -3.402253442392351e-06 0 0 0
13348 1 2 0 34.045813220256996 17.489157623119194 -3.6601973630392913e-06 0 0 0
6871 1 1 0 38.95971322983694 13.236938857247411 -1.6496746224511638 0 0 0
6867 1 1 0 36.32645950768914 14.195434338393097 -1.629449376190871 0 0 0
9696 1 2 0 37.38869131679104 13.02014402222752 -2.108330542990885 0 0 0
9695 1 2 0 37.17682448732395 15.512607977863826 -2.1899445402402375 0 0 0
9703 1 2 0 39.746354640901465 14.632926323169128 -2.168606341800759 0 0 0
6869 1 1 0 37.299584668152434 17.076208180743766 -1.6365999016978001 0 0 0
13347 1 2 0 36.112794372425036 14.385804812101266 -3.7957771726390524e-06 0 0 0
13351 1 2 0 39.01395754399441 13.26908952936804 -3.4994295044323275e-06 0 0 0
9697 1 2 0 35.74889388958058 17.525731896108812 -2.0998155361503588 0 0 0
9699 1 2 0 38.76680232845143 17.714627242459983 -2.2035701423162335 0 0 0
13349 1 2 0 37.39361493983032 17.263067587173065 -7.853118818158317e-07 0 0 0
6875 1 1 0 42.90168678790199 12.278636039249035 -1.5788318171969669 0 0 0
9708 1 2 0 42.12488159634195 13.502977765169446 -2.327520333670047 0 0 0
6876 1 1 0 41.3188372476355 14.78576443747158 -1.648027343379837 0 0 0
9710 1 2 0 42.18155161914505 16.112927817240067 -2.1895362888257837 0 0 0
9718 1 2 0 44.59601389263785 14.764491952178199 -2.1306027910028074 0 0 0
6882 1 1 0 43.76731503451248 16.141392498366205 -1.6528731931629852 0 0 0
9720 1 2 0 44.642532372886734 17.337081944938287 -2.373625147304053 0 0 0
6881 1 1 0 46.164066430750694 14.572621980535292 -1.6251025975073492 0 0 0
13356 1 2 0 41.32476232942604 14.82569471811018 -1.1238274026778779e-07 0 0 0
9716 1 2 0 46.968799647743936 13.33638865180007 -2.369624415694747 0 0 0
9731 1 2 0 51.83342399481161 13.212637073138795 -2.2903699559934574 0 0 0
9719 1 2 0 47.0253400523734 15.940471956565863 -2.0240469991235526 0 0 0
9733 1 2 0 49.42650232084272 14.774666398530192 -2.2106312461576025 0 0 0
6891 1 1 0 48.62431008636272 16.137137369761763 -1.6335925052989513 0 0 0
6890 1 1 0 50.96231142767923 14.472203286600676 -1.6263633667479311 0 0 0
9734 1 2 0 51.61660773475193 15.950038833274078 -2.0270543916704304 0 0 0
9735 1 2 0 49.0275543212941 17.64124451667183 -2.214811743685401 0 0 0
9743 1 2 0 55.98494580130141 13.422944301261763 -2.292734531575007 0 0 0
9745 1 2 0 54.033140389653056 15.12909510330676 -2.2279891935780607 0 0 0
6898 1 1 0 55.53872769140924 14.865018743075478 -1.6342704377823323 0 0 0
9746 1 2 0 56.31643090008292 16.276027003793516 -2.0524933887715697 0 0 0
6899 1 1 0 53.14690733772881 16.392467732200476 -1.6370361652054004 0 0 0
13378 1 2 0 55.61652252095632 14.705996531914748 -1.0616068453012692e-06 0 0 0
9751 1 2 0 62.615718029330296 12.278771107856018 -2.1180306459882035 0 0 0
9744 1 2 0 58.42686000046653 12.491330521116748 -2.138657376410039 0 0 0
6900 1 1 0 59.20758800984553 13.870527946177342 -1.650331884756272 0 0 0
9748 1 2 0 60.66541339366596 13.761099421204555 -2.3438708307379437 0 0 0
6903 1 1 0 62.14288667173415 13.807045321571096 -1.6428195407645687 0 0 0
9749 1 2 0 58.69093437789027 15.302174908957605 -2.283094382358835 0 0 0
9755 1 2 0 62.75803245693098 15.248797070050527 -2.207953121206706 0 0 0
6905 1 1 0 57.887133469869305 16.57370214278203 -1.6281501375015843 0 0 0
13380 1 2 0 59.222394243072436 13.940229444144487 -1.6361166112926484e-07 0 0 0
9759 1 2 0 65.71261969930188 12.444366409571781 -2.1798922165834993 0 0 0
6914 1 1 0 67.19945378864003 13.018327227796501 -1.6521198063257998 0 0 0
6915 1 1 0 66.56776340686041 15.96309905264394 -1.6445285310050781 0 0 0
9772 1 2 0 67.23518664438139 14.568798625374297 -2.2292050983695324 0 0 0
6916 1 1 0 63.57474328898353 16.598425537141303 -1.64752168454038 0 0 0
9774 1 2 0 65.0759592437917 16.287365393498384 -2.2479956168841464 0 0 0
9775 1 2 0 67.45209621688225 17.211774219195185 -2.2198366870245665 0 0 0
13396 1 2 0 63.49658211080764 16.633127558227226 -1.5979713308297124e-07 0 0 0
9778 1 2 0 71.20984862477182 12.283563212830039 -2.18591177335986 0 0 0
6925 1 1 0 72.26092931139236 13.45060160429677 -1.6481497278672437 0 0 0
9791 1 2 0 73.79661348084971 13.057561938724941 -2.2098233890633 0 0 0
9790 1 2 0 71.72248496871171 14.93327143771544 -2.2115906111304673 0 0 0
9792 1 2 0 70.04855151657272 17.23301687756726 -2.2161827581490128 0 0 0
6926 1 1 0 71.41456509449942 16.47407082232328 -1.6460507647327214 0 0 0
9793 1 2 0 72.62318694632756 17.426678302600934 -2.230422914470431 0 0 0
13405 1 2 0 72.29452776930914 13.494249504249707 -2.7822492729778893e-07 0 0 0
9796 1 2 0 76.56275497585432 12.510274798194978 -2.1994925315278158 0 0 0
6932 1 1 0 78.11565058926844 12.763076080649245 -1.6504216888777892 0 0 0
9802 1 2 0 78.54374178634794 14.230262991757462 -2.2715177431817617 0 0 0
6933 1 1 0 78.45300732557241 15.737163976381284 -1.6428948424942251 0 0 0
9805 1 2 0 79.73210121273253 16.578910405925747 -2.2485529284118804 0 0 0
9804 1 2 0 77.02609215027428 16.424229805020026 -2.1316486375344375 0 0 0
13413 1 2 0 78.5279742220795 15.685177996729553 -9.124960400930945e-08 0 0 0
9816 1 2 0 84.528401220143 16.11141440028814 -2.215131263563381 0 0 0
9818 1 2 0 82.20938264183359 17.383767159053207 -2.266283307022626 0 0 0
6942 1 1 0 83.73699339957369 17.458312383617727 -1.64908939214982 0 0 0
13422 1 2 0 83.77265116507925 17.45059395615054 -3.6448287626997274e-07 0 0 0
13421 1 2 0 80.7741725221217 17.68893041032389 -1.2945256710686129e-07 0 0 0
9813 1 2 0 85.5018395749707 13.512618894383142 -2.2190762249998666 0 0 0
6940 1 1 0 85.68183024005279 15.057245682769619 -1.6470840893979 0 0 0
9817 1 2 0 87.13962562012134 15.559046848594852 -2.238162557698985 0 0 0
9834 1 2 0 89.74220538537699 15.867404819501639 -2.18167850367981 0 0 0
6952 1 1 0 88.32520319665748 16.524598531186314 -1.6467646644917007 0 0 0
13420 1 2 0 85.63317160051601 15.048226365133399 -1.239753945708566e-06 0 0 0
6951 1 1 0 91.23332150736718 16.331954696148586 -1.6455712356385825 0 0 0
9830 1 2 0 91.9450777764154 12.762250489266059 -2.2122082072598976 0 0 0
6950 1 1 0 92.96786925004949 13.915997170923157 -1.648221054175395 0 0 0
9833 1 2 0 94.53692978940761 13.695800297356604 -2.16429815136335 0 0 0
9832 1 2 0 92.3847182337431 15.334120417346522 -2.26132334166476 0 0 0
6959 1 1 0 95.6988775776931 14.768049009648863 -1.642278637776371 0 0 0
9846 1 2 0 95.19915221808893 16.238179448696208 -2.204676402077579 0 0 0
13430 1 2 0 92.93662866827412 13.90768862689241 -3.9899872764865116e-07 0 0 0
13439 1 2 0 95.77609086886355 14.74920680145153 -2.0409850703899665e-07 0 0 0
9108 1 2 0 99.66773361746506 13.498851053621177 -2.1768445772199425 0 0 0
9111 1 2 0 97.18709000411059 14.413651189823184 -2.2517622895344944 0 0 0
6500 1 1 0 98.70045728559506 14.742820330359637 -1.647918790711028 0 0 0
9110 1 2 0 99.26392627077742 16.17566169714614 -2.2390941312352397 0 0 0
6501 1 1 0 100.09556914694082 17.492323423538195 -1.6491407513547525 0 0 0
9106 1 2 0 101.64138907588183 17.37542192980597 -2.249798867416442 0 0 0
12980 1 2 0 98.6837602311985 14.800714742836263 -3.2319980778155754e-07 0 0 0
9291 1 2 0 8.705086544423411 18.249199789220494 -2.2027312407900443 0 0 0
6663 1 1 0 8.633605958423898 19.803214692993524 -1.646980487255149 0 0 0
9382 1 2 0 9.994261836281769 20.541106876540187 -2.222192797478872 0 0 0
6665 1 1 0 11.464558886766381 21.06376715516662 -1.6470524689451096 0 0 0
9384 1 2 0 12.662564695303352 19.99980616057801 -2.1727433432274768 0 0 0
9385 1 2 0 11.529207434670807 22.6579645779678 -2.173879735941267 0 0 0
6666 1 1 0 13.957533356489614 19.0394915969342 -1.6472822526785924 0 0 0
9386 1 2 0 15.324584659574635 19.86962289515911 -2.1655333339076583 0 0 0
6978 1 1 0 16.72969802098703 20.63380736988104 -1.649478014797028 0 0 0
9870 1 2 0 17.97353893518079 19.676590520705595 -2.24021936379155 0 0 0
9872 1 2 0 16.94373091138536 22.227982515640527 -2.1721265371628777 0 0 0
9674 1 2 0 23.150972983677573 18.043289565733215 -2.177296797653695 0 0 0
6977 1 1 0 19.221093964064647 18.75662923058427 -1.6414582534619164 0 0 0
9871 1 2 0 20.6425480890077 19.38868102048918 -2.1983672949418755 0 0 0
6979 1 1 0 22.19560515104089 19.293344658311224 -1.644467308551903 0 0 0
9873 1 2 0 22.822265687646425 20.667698499260347 -2.255004035511877 0 0 0
6981 1 1 0 23.74327369645838 21.876395655659028 -1.653173041272389 0 0 0
13457 1 2 0 19.10844908844421 18.786811086083738 -3.5706636534155286e-07 0 0 0
13461 1 2 0 23.783667633867918 21.958436675825862 -1.6736002929050528e-06 0 0 0
13459 1 2 0 22.187467776790665 19.247789423271076 -2.7072105174169986e-06 0 0 0
9686 1 2 0 29.050142081851956 18.055285658734917 -2.2381644969578036 0 0 0
6982 1 1 0 26.645400756763905 21.255472076255746 -1.4945787858098856 0 0 0
9874 1 2 0 27.708980035673658 20.26844569594406 -2.2890195574406635 0 0 0
6980 1 1 0 29.096537106457223 19.58904118013303 -1.6537245542412988 0 0 0
9876 1 2 0 25.237282963329008 21.545925164963375 -2.298751204647666 0 0 0
9878 1 2 0 27.33084037330973 22.727135519449952 -1.334812978294913 0 0 0
13460 1 2 0 29.042816812768685 19.60681694693843 -1.9872098359448254e-06 0 0 0
13462 1 2 0 26.30756406876255 20.608050348491563 -1.5864134659474375e-06 0 0 0
9885 1 2 0 29.90965374352765 22.89136818326005 -2.302580269825989 0 0 0
9875 1 2 0 30.514292089974628 20.343804877869594 -2.132096869871662 0 0 0
6985 1 1 0 35.16595461802776 20.255488769127517 -1.6355540926761976 0 0 0
9698 1 2 0 33.94879635497697 19.265038800288448 -2.2020159648908626 0 0 0
6986 1 1 0 31.034793419288775 21.864374966094502 -1.6529777639728944 0 0 0
9884 1 2 0 32.45188393318072 22.46945943636276 -2.2648377636731074 0 0 0
6987 1 1 0 33.903877699713036 22.986532405707106 -1.6287064762233139 0 0 0
9882 1 2 0 34.95752917181542 21.811715939858807 -2.1003176873167173 0 0 0
13465 1 2 0 35.08294508527763 20.075854508985085 -3.767489525275871e-06 0 0 0
13467 1 2 0 33.712385549682175 23.135258685460485 -3.557969311762348e-06 0 0 0
9883 1 2 0 36.72375330289798 19.958103959908527 -2.174117466329683 0 0 0
6989 1 1 0 37.89910036723158 20.952311587111563 -1.5385711714500556 0 0 0
9887 1 2 0 39.34685350175006 20.218799686711694 -1.5469802407136064 0 0 0
6988 1 1 0 39.99290603036491 18.703848715210196 -1.5241887489000308 0 0 0
9889 1 2 0 38.10780468409171 22.353662704596214 -2.359137939224882 0 0 0
13469 1 2 0 37.435412510926845 21.344088830307715 -3.386413630881377e-06 0 0 0
9888 1 2 0 41.51373719164174 19.118675705261857 -2.2005822419935246 0 0 0
6992 1 1 0 42.640889780152165 20.21753925256244 -1.5614771088080959 0 0 0
9852 1 2 0 44.21403283052143 19.73235844593591 -1.6289684637763169 0 0 0
6963 1 1 0 45.37186233344831 18.583404965378225 -1.5589930553931581 0 0 0
9893 1 2 0 42.918417323735 21.726358998514296 -2.248965731585372 0 0 0
7023 1 1 0 43.95459065564973 22.928693799142128 -1.6546308629143465 0 0 0
9937 1 2 0 45.584967453785815 23.026820162463025 -2.162365549227568 0 0 0
9851 1 2 0 46.77449635038707 19.158998531792797 -2.2280536883454114 0 0 0
6964 1 1 0 48.342112736244026 19.064352025916914 -1.6572879301446954 0 0 0
9853 1 2 0 49.20844202828403 20.36775419710021 -2.245121061037046 0 0 0
9901 1 2 0 51.60549492396045 19.458921470257817 -1.7290951527092158 0 0 0
6998 1 1 0 50.667450740590404 20.81677368742374 -1.576200515509495 0 0 0
9903 1 2 0 51.54723177630753 22.013181226735696 -2.3365184804849735 0 0 0
9747 1 2 0 53.57399076954105 17.828525229103583 -2.3291808713601276 0 0 0
6997 1 1 0 53.23098620549738 19.267131977842165 -1.5831227022620524 0 0 0
9902 1 2 0 54.07421319835894 20.538018284707395 -2.236504899036836 0 0 0
9905 1 2 0 56.59184640001604 19.86884634568722 -2.195437926435455 0 0 0
7001 1 1 0 55.55179511676925 21.01299003673876 -1.6404304120333262 0 0 0
9907 1 2 0 55.98066863373858 22.5029309331975 -2.2104432103050713 0 0 0
13481 1 2 0 55.60721655613714 21.1110303704777 -6.162907217018857e-07 0 0 0
9757 1 2 0 58.43214857028077 17.993505043753796 -2.2659222860005728 0 0 0
9776 1 2 0 63.118408417914814 18.1269422262027 -2.197137414121033 0 0 0
7000 1 1 0 58.0985828542536 19.49633386933938 -1.6468790992178097 0 0 0
9906 1 2 0 59.090428812645506 20.654568440442606 -2.249104334083748 0 0 0
9908 1 2 0 61.663112118333395 20.467832699186033 -2.211302291450114 0 0 0
7002 1 1 0 63.02777767218749 19.71440432123832 -1.6448759911901458 0 0 0
7003 1 1 0 60.424992714288166 21.414208838692538 -1.6468985592620957 0 0 0
9910 1 2 0 60.33841779842879 22.9692011985069 -2.21854049507639 0 0 0
13482 1 2 0 63.02589996916811 19.648837679616843 -1.2980777790563442e-07 0 0 0
9909 1 2 0 64.24282081448958 20.724566256845613 -2.173518590956745 0 0 0
9794 1 2 0 68.41803921595469 19.593686364527873 -2.2162474783859234 0 0 0
7004 1 1 0 68.01449817887244 21.109225693938637 -1.6477807737231789 0 0 0
7005 1 1 0 65.0361912935145 22.098985027969004 -1.6467682315871757 0 0 0
9911 1 2 0 66.59586759858567 21.811499433910683 -2.1895208179616596 0 0 0
13484 1 2 0 67.96396281643541 21.068755218354347 -6.290492285749849e-08 0 0 0
13485 1 2 0 65.00837798244596 22.157962848070042 -1.1353501709216933e-07 0 0 0
6927 1 1 0 68.72561161116293 18.065046896275554 -1.6430484115613635 0 0 0
6934 1 1 0 73.6031709862711 18.603860725627943 -1.6487332965943935 0 0 0
9807 1 2 0 73.14784906753533 20.080521187863305 -2.2292631662458127 0 0 0
9912 1 2 0 69.24463823188235 22.03368197377315 -2.241703589804066 0 0 0
7008 1 1 0 70.47080058908182 22.95075324158927 -1.645599531190311 0 0 0
9915 1 2 0 71.93730977341639 22.449083070418165 -2.2373011377190406 0 0 0
7007 1 1 0 73.24630903064815 21.62314858949924 -1.6457254773499135 0 0 0
9806 1 2 0 75.06558805253917 18.218192330791883 -2.295261449353545 0 0 0
6935 1 1 0 76.53247824398412 17.925207280883672 -1.6416723684213483 0 0 0
13415 1 2 0 76.48105195296876 18.002748213794714 -1.702278878548161e-07 0 0 0
9808 1 2 0 77.54341779378825 19.071667191245588 -2.2431307601163657 0 0 0
7012 1 1 0 78.79789313190744 19.949739041335725 -1.6436047878621431 0 0 0
9916 1 2 0 74.68706976872123 22.27638743880696 -2.1554495523216355 0 0 0
9923 1 2 0 78.59191395049453 21.4470570347906 -2.276012480754191 0 0 0
7031 1 1 0 78.49270975020104 22.97553762027989 -1.6502562345550347 0 0 0
13492 1 2 0 78.76380292384941 20.02422207177469 -7.239349743002977e-07 0 0 0
13511 1 2 0 78.47632308923569 23.016311840193744 -3.1098817301495717e-07 0 0 0
6941 1 1 0 80.73187541927292 17.742554798406122 -1.6455725636582539 0 0 0
9819 1 2 0 80.22607977970254 19.251578724183037 -2.136602653141888 0 0 0
9820 1 2 0 84.33599028250293 18.891717708668786 -2.224515760978538 0 0 0
7015 1 1 0 85.05317608664187 20.264422649056247 -1.6432837708483465 0 0 0
9927 1 2 0 84.3720780103842 21.660861261862166 -2.21310394039754 0 0 0
13495 1 2 0 84.97631796149294 20.272318959378158 -4.610261034509506e-07 0 0 0
9836 1 2 0 88.17193871429228 18.040382389121437 -2.2870441715340357 0 0 0
9925 1 2 0 86.60024981322499 20.247581600121478 -2.210346420230958 0 0 0
7014 1 1 0 87.97295109476742 19.537470666127405 -1.6388357794114077 0 0 0
9926 1 2 0 89.22159222360283 20.504290120542496 -2.1278695482649392 0 0 0
7019 1 1 0 89.3212881265087 22.08956012892161 -1.641236043298417 0 0 0
9932 1 2 0 88.01560063196276 22.893549950884463 -2.246601100404374 0 0 0
9930 1 2 0 90.7883347284643 22.68301753349591 -2.162878669610599 0 0 0
6968 1 1 0 95.36554535066807 17.773909775309907 -1.6438273132079326 0 0 0
9835 1 2 0 91.52162006281492 17.855249919873017 -2.2068121837794807 0 0 0
13448 1 2 0 95.3761785662132 17.800852836849966 2.2242797001594374e-07 0 0 0
6969 1 1 0 92.60757692690127 18.961356647770778 -1.6455453789739716 0 0 0
9857 1 2 0 94.11863394651508 18.66677444335797 -2.2356209149048074 0 0 0
9859 1 2 0 92.11842323758312 20.39267344729996 -2.270314100062682 0 0 0
7018 1 1 0 92.17735504144781 21.91256222427409 -1.6477731079565525 0 0 0
9931 1 2 0 93.56685242732654 22.573341604530356 -2.2283180280725796 0 0 0
9858 1 2 0 96.77696226599355 18.366551114855568 -2.23640568873909 0 0 0
9112 1 2 0 99.3421232008112 18.899383552502766 -2.159873388293872 0 0 0
6970 1 1 0 97.8512184462475 19.47300345097853 -1.6460272937916627 0 0 0
9860 1 2 0 97.279827040889 20.93352310175511 -2.1981518099493504 0 0 0
7036 1 1 0 97.34580473042371 22.51135500459885 -1.647754487246205 0 0 0
9471 1 2 0 98.88399751622752 22.889628928944916 -2.180590354832237 0 0 0
9414 1 2 0 101.71607572475244 22.986776991793754 -2.2170384534562837 0 0 0
13450 1 2 0 97.8771699717415 19.53626994969512 -2.325438340097148e-08 0 0 0
13516 1 2 0 97.29479356944361 22.584655391879043 -3.8420308357554076e-08 0 0 0
6701 1 1 0 11.376305668493966 24.24536612867569 -1.6485345998040568 0 0 0
13181 1 2 0 11.326979878538767 24.264217427381936 -4.0123982846512466e-07 0 0 0
9436 1 2 0 9.97641738667381 25.043412056035624 -2.1893618400640436 0 0 0
9438 1 2 0 12.76403133813451 25.0154838431172 -2.190192918427742 0 0 0
6700 1 1 0 8.84987787609049 26.184164333412458 -1.645595847465361 0 0 0
9437 1 2 0 9.386472546243077 27.68080943736147 -2.1626942621924536 0 0 0
13180 1 2 0 8.819857774866069 26.04677032428189 -3.656763397693837e-07 0 0 0
7041 1 1 0 16.93655206700223 23.84099506260872 -1.6467982363358462 0 0 0