
15528 atoms
0 bonds
0 angles
0 dihedrals
0 impropers

2 atom types
0 bond types
0 angle types
0 dihedral types
0 improper types

0 205.03805663919815 xlo xhi
0 176.3911360915332 ylo yhi
-100 100 zlo zhi

Atoms

1 1 1 0 152.89373245136545 38.86838538387278 1.65
2 1 1 0 151.98612251385845 35.704154761674175 1.65
3 1 1 0 154.86794788364952 39.730586367141306 1.65
4 1 1 0 157.69528591175015 37.30845438426864 1.65
5 1 1 0 155.5375821041459 31.647248163622535 1.65
6 1 1 0 152.3709525308612 32.692104090665765 1.65
7 1 1 0 158.2839124644096 33.72799037792155 1.65
8 1 1 0 150.04848392796376 41.04385802621876 1.65
9 1 1 0 148.85494130906545 36.2744373859929 1.65
10 1 1 0 147.93536446455911 39.14944310369992 1.65
11 1 1 0 155.0773268213047 43.644882201935594 1.65
12 1 1 0 157.97343122337955 44.656343285694625 1.65
13 1 1 0 160.29066354463743 42.52717703635322 1.65
14 1 1 0 160.22189717066323 39.09358396972153 1.65
15 1 1 0 153.4079170732077 45.92729524350719 1.65
16 1 1 0 148.69467117174113 43.88585003681837 1.65
17 1 1 0 150.52284128877577 45.82886543998679 1.65
18 1 1 0 158.80247051505248 48.124279065891464 1.65
19 1 1 0 156.71803977134036 50.854295302911375 1.65
20 1 1 0 152.5986017711917 48.800568499866124 1.65
21 1 1 0 153.40929209453316 50.888255321968224 1.65
22 1 1 0 161.75319264976304 48.955126455409854 1.65
23 1 1 0 164.08078041509668 46.65588188014323 1.65
24 1 1 0 163.447290601644 43.695868241283435 1.65
25 1 1 0 106.20735753577893 5.561927119983599 1.65
26 1 1 0 102.71478985493988 5.486705054262577 1.65
27 1 1 0 107.33861611148477 8.169325277000828 1.65
28 1 1 0 104.16116921123849 9.905980441974032 1.65
29 1 1 0 101.25453683292339 8.191965781172609 1.65
30 1 1 0 107.97270354607355 3.0535835110640206 1.65
31 1 1 0 101.11486720468736 2.9151782358116214 1.65
32 1 1 0 106.258815000927 0.3163406051891493 1.65
33 1 1 0 102.89354634037986 0.2531573956577726 1.65
34 1 1 0 113.01246018097103 5.874206094251102 1.65
35 1 1 0 110.83888303784867 8.44213257825663 1.65
36 1 1 0 111.27753926490175 3.0930551840757237 1.65
37 1 1 0 121.38169925050585 3.7359245997894046 1.65
38 1 1 0 123.17055916116378 6.341737597552539 1.65
39 1 1 0 118.09457917148887 5.533854994449444 1.65
40 1 1 0 118.30941834910752 9.097253453545319 1.65
41 1 1 0 121.62741352317951 9.20698590105147 1.65
42 1 1 0 123.34323537205326 0.6436238344673022 1.65
43 1 1 0 128.19081272833958 3.9092656607190546 1.65
44 1 1 0 126.33686719142996 6.270828102305387 1.65
45 1 1 0 126.98604081962083 0.8878743906441042 1.65
46 1 1 0 116.26321428187522 4.365054989881564 1.65
47 1 1 0 116.20865113723589 0.4749729633964771 1.65
48 1 1 0 118.2803199073593 174.19975959350447 1.65
49 1 1 0 121.99380706626796 174.25027752442278 1.65
50 1 1 0 131.54458400220616 5.395898108017145 1.65
51 1 1 0 128.0743309740452 8.95539614848755 1.65
52 1 1 0 131.39722715285677 8.53436575361945 1.65
53 1 1 0 133.80618997166337 3.9099639823847006 1.65
54 1 1 0 133.1388253406859 0.4943819404082599 1.65
55 1 1 0 129.67244746250992 175.35006088749898 1.65
56 1 1 0 140.28516203526232 57.57842345183141 1.65
57 1 1 0 141.84160619026952 54.46731111798622 1.65
58 1 1 0 137.129800650674 57.77992022625781 1.65
59 1 1 0 136.30355282867475 52.21592608168469 1.65
60 1 1 0 139.96305640021123 51.82058883917981 1.65
61 1 1 0 135.0267412341447 55.0641451349175 1.65
62 1 1 0 142.3035227278738 60.02503671245645 1.65
63 1 1 0 145.16093425373893 54.95138560337752 1.65
64 1 1 0 147.27386583078336 58.10004957886079 1.65
65 1 1 0 145.97289845992543 60.06258835409453 1.65
66 1 1 0 135.68595434225412 60.61313317271615 1.65
67 1 1 0 141.34657805311684 62.83854957254886 1.65
68 1 1 0 136.31104922438865 64.07766321952752 1.65
69 1 1 0 138.48557060782068 64.88757030899858 1.65
70 1 1 0 139.59190018168377 2.814743690723775 1.65
71 1 1 0 137.24334062227777 5.273371986554494 1.65
72 1 1 0 138.73256776200836 175.77036160327447 1.65
73 1 1 0 135.7166435716249 174.81340785712877 1.65
74 1 1 0 142.91254799291366 3.7057400526308397 1.65
75 1 1 0 144.1148496683691 6.820249380110239 1.65
76 1 1 0 138.41786106464824 8.447509491333182 1.65
77 1 1 0 141.96872229950966 9.103390522981861 1.65
78 1 1 0 145.2001831044512 1.4472509487191674 1.65
79 1 1 0 141.29155381424354 173.73316775097356 1.65
80 1 1 0 144.43852134545648 174.9101968260444 1.65
81 1 1 0 149.3620209539758 5.366719971320082 1.65
82 1 1 0 147.25958073093327 7.569228868846947 1.65
83 1 1 0 148.50492500294916 2.3592513786717015 1.65
84 1 1 0 152.47914795752072 6.442155317562497 1.65
85 1 1 0 152.09022326178228 9.916943911406788 1.65
86 1 1 0 148.71889914230712 10.599202238668326 1.65
87 1 1 0 154.81095215114567 4.381995076578194 1.65
88 1 1 0 154.0059809422913 1.039833508571625 1.65
89 1 1 0 150.81708079763973 0.09252515690754981 1.65
90 1 1 0 158.41015951237335 4.636385749037581 1.65
91 1 1 0 159.54062668655948 7.394099013403514 1.65
92 1 1 0 154.08762183376896 11.595112597361117 1.65
93 1 1 0 157.39844751069117 10.536360338964908 1.65
94 1 1 0 159.47179009663103 1.0017363985522423 1.65
95 1 1 0 156.3364954229816 175.31657081988482 1.65
96 1 1 0 165.17324525262364 1.341661492826094 1.65
97 1 1 0 167.18431143228278 4.487266420222375 1.65
98 1 1 0 162.05117873447304 175.8605051762687 1.65
99 1 1 0 166.38783487755381 6.638847328208465 1.65
100 1 1 0 162.92784723423875 7.78332297899488 1.65
101 1 1 0 167.53383528123496 175.61437591779622 1.65
102 1 1 0 170.72266703111953 3.716017710541214 1.65
103 1 1 0 170.3005757964597 0.5804260317758596 1.65
104 1 1 0 167.20611245507644 169.85113211327158 1.65
105 1 1 0 164.53799180820386 169.97784230559634 1.65
106 1 1 0 168.3789674624474 172.39774639289936 1.65
107 1 1 0 162.08156390642614 172.2740887991078 1.65
108 1 1 0 176.2517123482058 2.271320186694482 1.65
109 1 1 0 179.41516915939485 2.756581395780789 1.65
110 1 1 0 173.69423681426963 4.689276300725381 1.65
111 1 1 0 180.51828963215462 5.617335842719527 1.65
112 1 1 0 174.64787563558235 7.964429914953705 1.65
113 1 1 0 178.3084716422783 8.407228247861543 1.65
114 1 1 0 175.5721788226753 175.56350141879793 1.65
115 1 1 0 181.66254438434942 0.2132095359950199 1.65
116 1 1 0 178.00612500311996 173.01701216789613 1.65
117 1 1 0 180.93303375360503 173.57259516754013 1.65
118 1 1 0 172.5926120540793 174.84586585406348 1.65
119 1 1 0 183.73957229092662 5.760373631166076 1.65
120 1 1 0 185.78028996785596 3.1451371198006997 1.65
121 1 1 0 184.80638253403853 0.45872747156837423 1.65
122 1 1 0 196.66329999929673 2.516629190480383 1.65
123 1 1 0 195.82082415314335 5.566803987764727 1.65
124 1 1 0 194.4463477785651 176.23717037978807 1.65
125 1 1 0 189.24612041947165 3.191751401414916 1.65
126 1 1 0 190.09605904230955 5.712665728795971 1.65
127 1 1 0 191.08669209502463 0.2420999779711832 1.65
128 1 1 0 193.0510077470578 6.5917073360668015 1.65
129 1 1 0 200.19663448160856 2.033368050046264 1.65
130 1 1 0 201.72837363411156 5.165082115623198 1.65
131 1 1 0 197.6227560554719 8.785602972430242 1.65
132 1 1 0 199.9969710541283 8.867142240722831 1.65
133 1 1 0 201.3650766732111 175.39145471537964 1.65
134 1 1 0 199.1656364882866 172.5631811339228 1.65
135 1 1 0 195.78024207595243 172.92563565789715 1.65
136 1 1 0 1.8156936130334784 3.4165714600591666 1.65
137 1 1 0 204.45490589331598 5.56876309698992 1.65
138 1 1 0 4.778019736713313 5.303519932661003 1.65
139 1 1 0 0.9736086630782126 8.727034627067773 1.65
140 1 1 0 4.261522347771436 8.3109685306495 1.65
141 1 1 0 2.055300535453995 0.5340028228640727 1.65
142 1 1 0 204.59131520021896 174.80464372834655 1.65
143 1 1 0 7.5527696994791125 4.200708181502729 1.65
144 1 1 0 7.927919301762218 1.1031269462204283 1.65
145 1 1 0 5.392776261416932 175.71450615171682 1.65
146 1 1 0 111.14953103839728 11.790937886512257 1.65
147 1 1 0 116.90320624544586 11.809481028469872 1.65
148 1 1 0 113.74826096747161 13.104038981999164 1.65
149 1 1 0 112.94459495775256 0.18990260347808663 1.65
150 1 1 0 123.34646686159223 11.92801468129185 1.65
151 1 1 0 126.62707628219175 11.747334423975083 1.65
152 1 1 0 133.15276865674156 11.05984015946341 1.65
153 1 1 0 136.4280071299251 11.04323306159569 1.65
154 1 1 0 143.2681955232891 11.97384487192976 1.65
155 1 1 0 146.8736413035224 12.720677098879516 1.65
156 1 1 0 168.85235970210283 9.592322562783012 1.65
157 1 1 0 163.62171870966677 11.358165202196876 1.65
158 1 1 0 166.7635499142597 12.149994773782728 1.65
159 1 1 0 172.28745703936804 10.441143603932867 1.65
160 1 1 0 185.0713691536114 8.578833154552083 1.65
161 1 1 0 179.7606929669154 11.12568935484378 1.65
162 1 1 0 183.3023078194765 11.154256473087772 1.65
163 1 1 0 187.96202545337866 8.48451097056776 1.65
164 1 1 0 186.27211560213757 173.57860235629306 1.65
165 1 1 0 189.08659471150796 173.31536058108168 1.65
166 1 1 0 192.97093573926978 9.859439972096654 1.65
167 1 1 0 190.00337022769682 10.89307105357504 1.65
168 1 1 0 195.6065769335055 11.473219576655735 1.65
169 1 1 0 204.9276218274521 11.330828774088685 1.65
170 1 1 0 201.63945983850846 11.874617369110466 1.65
171 1 1 0 107.80713582682016 13.543040450693068 1.65
172 1 1 0 104.31904092602527 11.930890307410642 1.65
173 1 1 0 118.81790858256248 14.830100733404018 1.65
174 1 1 0 121.94317402463687 14.838901938719847 1.65
175 1 1 0 128.36708297528577 14.319200834687003 1.65
176 1 1 0 131.569879171024 14.05273696504343 1.65
177 1 1 0 137.85519321839135 14.072441892261793 1.65
178 1 1 0 141.14452037689392 14.347172670947185 1.65
179 1 1 0 153.64418170053062 15.35933445001905 1.65
180 1 1 0 147.87992549454182 15.709201704693047 1.65
181 1 1 0 151.0909974831482 17.15371595533866 1.65
182 1 1 0 158.72473890730754 13.543553320814208 1.65
183 1 1 0 156.62828168931807 16.411989408289386 1.65
184 1 1 0 161.56078955860386 13.97613421845481 1.65
185 1 1 0 173.09797029670312 13.663822580939724 1.65
186 1 1 0 175.79575397952337 15.283896570839165 1.65
187 1 1 0 178.47972420431756 14.23927023420765 1.65
188 1 1 0 189.58657962270811 13.649939174608967 1.65
189 1 1 0 184.0212059024164 14.498370208506698 1.65
190 1 1 0 186.6611841217616 15.425661838088796 1.65
191 1 1 0 6.458976615248787 10.696873550132112 1.65
192 1 1 0 1.7911383529359668 14.069248671472804 1.65
193 1 1 0 5.0726360952375655 13.851359543934505 1.65
194 1 1 0 9.404119858268308 10.188375920427301 1.65
195 1 1 0 10.833832095020473 5.224901192478269 1.65
196 1 1 0 11.431679893163622 7.510428690404387 1.65
197 1 1 0 106.95470455180711 16.272710695364168 1.65
198 1 1 0 103.52644918444472 16.543259229267672 1.65
199 1 1 0 101.78736886173542 13.911451554489375 1.65
200 1 1 0 113.90257596637169 16.964474605820726 1.65
201 1 1 0 117.22824914042985 17.62321844838669 1.65
202 1 1 0 123.96328885697095 17.690242161045397 1.65
203 1 1 0 127.10658838702031 17.35122131432932 1.65
204 1 1 0 132.94854358198876 16.931987944855504 1.65
205 1 1 0 135.95861915617255 16.96829996994159 1.65
206 1 1 0 142.31414694621316 16.904794139609898 1.65
207 1 1 0 145.44410628362778 17.519990946406004 1.65
208 1 1 0 167.8035415551894 15.387512572272524 1.65
209 1 1 0 162.60767478624922 17.366424728487345 1.65
210 1 1 0 165.70859557824184 17.985973510719205 1.65
211 1 1 0 170.7028646003676 16.052519338279666 1.65
212 1 1 0 195.49501403923526 14.82251829426137 1.65
213 1 1 0 192.44258224001084 15.965606810736217 1.65
214 1 1 0 201.06738355352957 15.106461361807995 1.65
215 1 1 0 198.21075668334285 16.606383079515037 1.65
216 1 1 0 108.37784709985671 18.913685655047694 1.65
217 1 1 0 111.69214751378392 19.3925878850052 1.65
218 1 1 0 163.4150982562486 52.02888546350883 1.65
219 1 1 0 158.0681609646758 54.033724480562555 1.65
220 1 1 0 161.81449731487348 54.37746725164162 1.65
221 1 1 0 167.08699870408887 48.0610463297703 1.65
222 1 1 0 166.81798857252443 51.60619775959283 1.65
223 1 1 0 118.93183357885361 20.52673956835631 1.65
224 1 1 0 122.54160785332033 20.584962075699185 1.65
225 1 1 0 130.09339542848267 19.143344495667826 1.65
226 1 1 0 137.51230506424153 19.81736472075326 1.65
227 1 1 0 140.57850569577957 19.479128111736177 1.65
228 1 1 0 157.66403455680071 19.58532483362375 1.65
229 1 1 0 151.10785449876226 20.571725976046398 1.65
230 1 1 0 156.35202550298789 22.512716783289147 1.65
231 1 1 0 153.48717677002148 22.835527974486027 1.65
232 1 1 0 160.80737700243554 20.10717925618111 1.65
233 1 1 0 171.9839982076093 19.336021120786025 1.65
234 1 1 0 175.0494179911646 19.01696868337291 1.65
235 1 1 0 181.14990513707508 16.53944741018953 1.65
236 1 1 0 191.390270717941 18.617591911302355 1.65
237 1 1 0 187.66283418083464 18.573534332913 1.65
238 1 1 0 204.37477173718145 16.44583570311259 1.65
239 1 1 0 6.94233853341892 16.413146409582815 1.65
240 1 1 0 204.80225941653634 19.084574556429427 1.65
241 1 1 0 2.7296063603935337 20.322402501824833 1.65
242 1 1 0 5.68331911193367 19.332869743608047 1.65
243 1 1 0 12.464864319238902 11.620636213360939 1.65
244 1 1 0 12.842991141297208 13.69252823438554 1.65
245 1 1 0 10.246382403788521 16.093377864576233 1.65
246 1 1 0 105.26012472524364 21.174604816453684 1.65
247 1 1 0 102.34015118446723 19.413951688861037 1.65
248 1 1 0 112.82850740625788 22.42260514058923 1.65
249 1 1 0 117.99048455448388 23.68946130674009 1.65
250 1 1 0 115.72111338253231 24.21286906004282 1.65
251 1 1 0 130.24792269185576 21.543070802626403 1.65
252 1 1 0 124.21355480832014 23.62438774153092 1.65
253 1 1 0 127.43132371137523 23.837227542058084 1.65
254 1 1 0 133.33525937767482 23.39805582453485 1.65
255 1 1 0 136.2956535820776 22.87309699052199 1.65
256 1 1 0 145.49019847242934 20.520606004439543 1.65
257 1 1 0 142.46508502860678 21.743864645503066 1.65
258 1 1 0 147.94287469895747 22.12782678343432 1.65
259 1 1 0 166.90684211281484 21.050972119533608 1.65
260 1 1 0 162.204299859893 23.390360904340735 1.65
261 1 1 0 165.20284417827972 23.71460498546137 1.65
262 1 1 0 170.28292169700413 21.736012963593282 1.65
263 1 1 0 180.60062815058015 19.593895075170188 1.65
264 1 1 0 177.1841112294639 21.02679001172205 1.65
265 1 1 0 198.63951752344414 20.376590723570672 1.65
266 1 1 0 193.0280329429613 21.463080965541458 1.65
267 1 1 0 196.391109215249 22.532369857666612 1.65
268 1 1 0 201.92363207298575 21.515407859180463 1.65
269 1 1 0 107.97138666422985 25.336738887590794 1.65
270 1 1 0 105.14750647002118 23.603599297063255 1.65
271 1 1 0 110.96937939001188 24.918104131069384 1.65
272 1 1 0 122.54468797377599 27.006447522332394 1.65
273 1 1 0 119.93139199440644 27.129743594884438 1.65
274 1 1 0 129.07197896996686 26.923172013250905 1.65
275 1 1 0 132.33675563703625 26.63676979555791 1.65
276 1 1 0 138.5058625088419 25.566190534756302 1.65
277 1 1 0 141.60909332383306 24.775194798754463 1.65
278 1 1 0 160.63748615731745 26.581775850165915 1.65
279 1 1 0 157.92855424604713 26.225986151671684 1.65
280 1 1 0 147.29881405153733 25.53990001621423 1.65
281 1 1 0 152.88569354513996 26.255009694938718 1.65
282 1 1 0 149.8623106264606 27.403280929279 1.65
283 1 1 0 186.21087314078594 21.054542874286806 1.65
284 1 1 0 182.9035015679078 21.62386867422973 1.65
285 1 1 0 191.01080337610122 23.884104197283328 1.65
286 1 1 0 187.92108011103224 23.519623684418033 1.65
287 1 1 0 3.1065553870545006 23.64890088468253 1.65
288 1 1 0 203.34145956481072 24.373005314211404 1.65
289 1 1 0 1.558979295824156 25.268670394318065 1.65
290 1 1 0 6.140496219119442 24.56876322318363 1.65
291 1 1 0 7.614023435931607 21.92088876964787 1.65
292 1 1 0 106.78998166291213 28.4833311960258 1.65
293 1 1 0 103.5561271633197 28.709005714541913 1.65
294 1 1 0 102.12809161661035 25.792130906016745 1.65
295 1 1 0 112.76656008479301 27.648161421178553 1.65
296 1 1 0 115.44472641488584 27.475568250194765 1.65
297 1 1 0 127.69306380858139 29.99077375875803 1.65
298 1 1 0 124.38354171544559 30.286889068366683 1.65
299 1 1 0 137.51640555252183 28.695281373461814 1.65
300 1 1 0 134.30769288511897 29.240901800250565 1.65
301 1 1 0 143.9901461202355 26.964009390470846 1.65
302 1 1 0 167.63643775665756 26.558361241134445 1.65
303 1 1 0 162.6774072313697 29.557783284898004 1.65
304 1 1 0 166.6778145123231 29.210124594745903 1.65
305 1 1 0 170.98920539916944 25.239103730400483 1.65
306 1 1 0 176.77763983541004 24.520859817039256 1.65
307 1 1 0 173.85292450248383 26.666881928175282 1.65
308 1 1 0 181.9787178560882 24.744066429902176 1.65
309 1 1 0 179.2693730447067 26.208162636159837 1.65
310 1 1 0 196.91669312423045 26.3013283613639 1.65
311 1 1 0 191.62622435576424 26.886945110620275 1.65
312 1 1 0 194.16903783160575 28.234880382575692 1.65
313 1 1 0 202.25221709716996 27.15345966047129 1.65
314 1 1 0 199.4462719063787 28.100736165753155 1.65
315 1 1 0 108.70793116994076 30.901322167770868 1.65
316 1 1 0 111.68651686603964 30.48478714944503 1.65
317 1 1 0 116.38326364464365 30.64010340533088 1.65
318 1 1 0 118.60055805221268 30.817686503323287 1.65
319 1 1 0 143.14133624007835 30.251614391633225 1.65
320 1 1 0 139.77082648735583 31.191890638622354 1.65
321 1 1 0 155.6597337315179 28.35995287169249 1.65
322 1 1 0 149.46972123955382 30.553080033075997 1.65
323 1 1 0 186.76801489712955 26.293238950801598 1.65
324 1 1 0 184.13302421506364 26.948355896342814 1.65
325 1 1 0 188.95351328387923 28.372901558220367 1.65
326 1 1 0 2.3600934852306517 28.665707945885078 1.65
327 1 1 0 204.82872212206004 29.78782059682599 1.65
328 1 1 0 5.114590723745164 29.985393278079524 1.65
329 1 1 0 7.34741736640361 27.50821806501361 1.65
330 1 1 0 107.79001414121784 34.303109725144395 1.65
331 1 1 0 104.55238720880689 34.39125763073301 1.65
332 1 1 0 102.2364497379374 31.21514459187559 1.65
333 1 1 0 114.05525616867581 32.685280808231646 1.65
334 1 1 0 129.69202749941837 32.81199972218153 1.65
335 1 1 0 133.04187990888656 32.348529981367065 1.65
336 1 1 0 146.0574147844734 31.977304121173606 1.65
337 1 1 0 161.65559997943967 32.531854442298716 1.65
338 1 1 0 169.44054801393472 32.09716732299297 1.65
339 1 1 0 164.10525116454278 34.86231132955482 1.65
340 1 1 0 167.88979191808443 34.77528290040118 1.65
341 1 1 0 175.01232766119045 30.29762686393103 1.65
342 1 1 0 173.4121148387655 32.67328509020177 1.65
343 1 1 0 180.09625342533073 29.609446799295117 1.65
344 1 1 0 178.76392337474067 31.55288891593028 1.65
345 1 1 0 183.22261042989624 29.995787553502844 1.65
346 1 1 0 193.98832064144773 31.613757105769935 1.65
347 1 1 0 199.26568617893892 31.78009662533262 1.65
348 1 1 0 196.55539020663267 33.35956554413761 1.65
349 1 1 0 110.20845803324309 36.63953193047572 1.65
350 1 1 0 113.49511436460219 35.4382380318888 1.65
351 1 1 0 123.13274436223203 33.55892314742022 1.65
352 1 1 0 119.96305667836867 33.966424509824776 1.65
353 1 1 0 128.3226837140651 35.895677059991776 1.65
354 1 1 0 125.07292267001456 36.3464851756218 1.65
355 1 1 0 138.49960923525833 34.252508829450335 1.65
356 1 1 0 134.97937532419192 34.863527745406294 1.65
357 1 1 0 145.82746487098777 34.6866108030821 1.65
358 1 1 0 143.17186633871447 36.81930086553478 1.65
359 1 1 0 140.19008006811958 36.884413627142614 1.65
360 1 1 0 188.52308644452046 31.27408256365943 1.65
361 1 1 0 185.42717427260337 32.241851613400684 1.65
362 1 1 0 191.01508032624744 33.16700283925358 1.65
363 1 1 0 204.51934977800826 32.56376159729818 1.65
364 1 1 0 201.7622590256784 33.60876112052295 1.65
365 1 1 0 0.02041014399478458 35.79822598498979 1.65
366 1 1 0 2.1388850695086985 36.32050862498567 1.65
367 1 1 0 5.49092232071044 33.30814008603425 1.65
368 1 1 0 110.72923921410704 40.130731673074024 1.65
369 1 1 0 108.95381013662923 42.38979830818823 1.65
370 1 1 0 106.07858282761669 41.90019798710051 1.65
371 1 1 0 103.18012013479282 36.791902450250106 1.65
372 1 1 0 104.06330093905515 39.70535396617208 1.65
373 1 1 0 115.71739874637501 37.78234179639286 1.65
374 1 1 0 118.73546445809791 37.23832920858162 1.65
375 1 1 0 130.25069238044435 38.533044199978846 1.65
376 1 1 0 133.55753158110298 37.96436462620784 1.65
377 1 1 0 13.359196464166464 2.616305076655949 1.65
378 1 1 0 11.342352996685777 0.23065637091059354 1.65
379 1 1 0 16.560347298899714 3.0017897349975846 1.65
380 1 1 0 17.095727390724317 7.042646143753539 1.65
381 1 1 0 14.492424354134217 8.942688983338023 1.65
382 1 1 0 19.072446068809317 0.8695851228399931 1.65
383 1 1 0 15.2198063653603 172.54495430826 1.65
384 1 1 0 12.065000437510028 173.51007565599875 1.65
385 1 1 0 18.459522034052522 174.33523604316542 1.65
386 1 1 0 144.6759783439446 39.60872607011727 1.65
387 1 1 0 22.136199000258408 6.344330882833161 1.65
388 1 1 0 19.25649035892843 8.321524013159522 1.65
389 1 1 0 24.23715213231094 3.7167362213610886 1.65
390 1 1 0 23.200790869683765 1.4175319170592853 1.65
391 1 1 0 24.26195883597667 8.671483969086248 1.65
392 1 1 0 23.15835733827977 11.554626981548836 1.65
393 1 1 0 19.95046239864193 11.796951600042659 1.65
394 1 1 0 27.84546951496488 4.943846270209735 1.65
395 1 1 0 27.460399745552877 8.194431266252574 1.65
396 1 1 0 163.26017490842577 37.84357685063055 1.65
397 1 1 0 30.355785357619794 3.935037718986798 1.65
398 1 1 0 33.22095313819662 5.835947223133311 1.65
399 1 1 0 34.55687453459584 8.98031897316948 1.65
400 1 1 0 29.47530345623284 10.607197004172004 1.65
401 1 1 0 32.993354396979115 11.007891691152697 1.65
402 1 1 0 31.02498849780538 0.4386226144900901 1.65
403 1 1 0 29.162562525835057 174.58260905746414 1.65
404 1 1 0 25.646254277778752 175.14499438323097 1.65
405 1 1 0 169.41450260082013 37.59328962812307 1.65
406 1 1 0 165.25985702044997 40.805777495538685 1.65
407 1 1 0 167.62964395930268 40.64251870218484 1.65
408 1 1 0 35.70597669524989 4.034138288217246 1.65
409 1 1 0 38.67701431270415 5.700505757610811 1.65
410 1 1 0 38.227484149461475 9.00305241691201 1.65
411 1 1 0 34.60749983238233 0.7873556382124165 1.65
412 1 1 0 175.91736581297994 35.68109248545306 1.65
413 1 1 0 172.261379830507 38.874878729835196 1.65
414 1 1 0 175.1115977822985 38.16876764043106 1.65
415 1 1 0 41.255148078322556 4.2079394775101076 1.65
416 1 1 0 40.17202571250938 0.7088297375336565 1.65
417 1 1 0 36.49541508402341 175.34574945916276 1.65
418 1 1 0 181.07660444801806 34.96107477210065 1.65
419 1 1 0 179.8302597086823 36.71362011535268 1.65
420 1 1 0 47.37783312569016 2.460093854846112 1.65
421 1 1 0 50.72199539059037 2.0148887162994935 1.65
422 1 1 0 45.07299190807942 5.174704773604318 1.65
423 1 1 0 54.045557379654646 3.156229563406614 1.65
424 1 1 0 54.66498835407086 5.28122192523503 1.65
425 1 1 0 52.346752411621374 7.841440832752749 1.65
426 1 1 0 46.008934977747735 7.719105934761018 1.65
427 1 1 0 49.319102241973255 8.706054770627652 1.65
428 1 1 0 45.36399710687495 0.005356078323046631 1.65
429 1 1 0 51.75863793171829 175.24304494282012 1.65
430 1 1 0 49.59899629211752 172.8988589405859 1.65
431 1 1 0 46.54851773217439 173.60710102907544 1.65
432 1 1 0 41.97603352345103 175.611993348638 1.65
433 1 1 0 184.61349834131525 35.26369671536334 1.65
434 1 1 0 56.94745784240719 0.5216747470796017 1.65
435 1 1 0 54.98795494880461 174.4653239626869 1.65
436 1 1 0 196.50430023853374 36.73235508715581 1.65
437 1 1 0 190.54419569843293 36.329232611516694 1.65
438 1 1 0 193.4663460455343 38.148776421051245 1.65
439 1 1 0 58.482280492225904 6.510157775282458 1.65
440 1 1 0 57.79061518992576 9.940229066088852 1.65
441 1 1 0 54.65123254405173 10.556019134472445 1.65
442 1 1 0 62.28344138547698 2.045391430309377 1.65
443 1 1 0 61.275581939459066 5.444870242639652 1.65
444 1 1 0 60.38550077981853 176.0946281106473 1.65
445 1 1 0 65.67597009156229 1.6270467673998876 1.65
446 1 1 0 67.2579557962806 4.512527110346981 1.65
447 1 1 0 64.68657379361984 6.875300612390594 1.65
448 1 1 0 68.49624376050325 175.9217142023367 1.65
449 1 1 0 64.67128560455251 171.69896004717455 1.65
450 1 1 0 61.509159744228945 172.64395182036728 1.65
451 1 1 0 68.17159594276355 173.47600526481315 1.65
452 1 1 0 202.30137603086305 36.84322550821456 1.65
453 1 1 0 199.75371321602466 38.38735055604243 1.65
454 1 1 0 70.58422946759457 4.412029840347914 1.65
455 1 1 0 71.79720691605526 1.307968397955495 1.65
456 1 1 0 114.21959947872777 40.94563211212154 1.65
457 1 1 0 72.4782545104428 7.088791030319515 1.65
458 1 1 0 65.23695852502095 9.28610152081677 1.65
459 1 1 0 71.45036560052472 9.979076385633368 1.65
460 1 1 0 68.5178922166728 10.554298350952386 1.65
461 1 1 0 77.75656682554595 3.2814493156012987 1.65
462 1 1 0 76.11616510897116 6.654474620142926 1.65
463 1 1 0 75.33163367547826 0.6117042833854711 1.65
464 1 1 0 82.33846206663372 3.531449180388158 1.65
465 1 1 0 83.98551412088597 6.6341768806592025 1.65
466 1 1 0 81.38393756460123 8.983083659276103 1.65
467 1 1 0 78.09648379377421 9.25338126354668 1.65
468 1 1 0 83.98270746017702 1.837535288849267 1.65
469 1 1 0 83.41049613217001 175.2493668638101 1.65
470 1 1 0 79.20533706302447 172.24216145443617 1.65
471 1 1 0 76.26065323778157 173.73389479365466 1.65
472 1 1 0 82.28600141380193 172.78180238391468 1.65
473 1 1 0 87.31220374982956 8.33051397761215 1.65
474 1 1 0 86.43835457811264 11.48922792578997 1.65
475 1 1 0 83.17305048627742 11.718023826622318 1.65
476 1 1 0 87.52215929172344 1.7678802763521877 1.65
477 1 1 0 86.94994796371643 175.17971185131302 1.65
478 1 1 0 123.76403299559493 39.54934697126981 1.65
479 1 1 0 120.59626246754164 40.03368964182507 1.65
480 1 1 0 91.99213118752554 5.3247765416722395 1.65
481 1 1 0 90.5643841428695 8.066948124061602 1.65
482 1 1 0 90.63235057177978 2.415959682454655 1.65
483 1 1 0 129.02849852212333 41.847418566349106 1.65
484 1 1 0 125.79160018132447 42.41291322201004 1.65
485 1 1 0 95.80518559411374 5.590149869787874 1.65
486 1 1 0 97.84188620108814 8.289461133202547 1.65
487 1 1 0 93.02195803792745 11.170213125548669 1.65
488 1 1 0 96.48640568955791 11.127352806573978 1.65
489 1 1 0 97.61791357569645 2.92112769930698 1.65
490 1 1 0 93.13211973357197 176.32315610373018 1.65
491 1 1 0 96.30462833090046 0.17181470093365192 1.65
492 1 1 0 135.40079284165742 40.58485784526177 1.65
493 1 1 0 138.5131074176076 40.1159257621525 1.65
494 1 1 0 25.25266750022729 13.915932174518426 1.65
495 1 1 0 28.371172708604153 13.445554899975269 1.65
496 1 1 0 43.7189214295455 10.671973146202243 1.65
497 1 1 0 40.47265798501624 11.370508444023264 1.65
498 1 1 0 187.23852588541786 37.45815743788519 1.65
499 1 1 0 49.0821053214997 12.138875537866754 1.65
500 1 1 0 46.11418228101645 13.247016830876957 1.65
501 1 1 0 62.980484616983446 11.956697418336777 1.65
502 1 1 0 59.9347389496017 12.55313021676204 1.65
503 1 1 0 115.70532620414197 43.73237449868719 1.65
504 1 1 0 119.06392348123293 43.36444461620197 1.65
505 1 1 0 71.2144329607736 13.046601232425393 1.65
506 1 1 0 76.71441204940213 12.419036166854053 1.65
507 1 1 0 72.77918327401429 13.995744426037376 1.65
508 1 1 0 91.77315224467812 13.855599795773925 1.65
509 1 1 0 88.44172917790324 13.911048742464683 1.65
510 1 1 0 131.03635664559062 44.476691140055756 1.65
511 1 1 0 134.1018117644661 43.78280999273943 1.65
512 1 1 0 98.56009704345313 13.935089152071527 1.65
513 1 1 0 143.42138526125368 42.35701410512447 1.65
514 1 1 0 140.2403006055116 42.79910103555187 1.65
515 1 1 0 18.913445055540542 14.712697678100664 1.65
516 1 1 0 15.99429680129525 15.209204951826612 1.65
517 1 1 0 145.32695862564555 44.739723149306734 1.65
518 1 1 0 24.17572286595296 16.92576128151792 1.65
519 1 1 0 21.044395360904055 17.480202166606336 1.65
520 1 1 0 33.82804279641253 14.20974411883859 1.65
521 1 1 0 30.68841865497325 15.54736429025672 1.65
522 1 1 0 39.43152457052609 14.756730192340276 1.65
523 1 1 0 36.2533591313516 15.8407590474068 1.65
524 1 1 0 172.116039409967 42.20368592614678 1.65
525 1 1 0 169.38751149952412 43.34079514845585 1.65
526 1 1 0 178.0688753829534 40.895385319909884 1.65
527 1 1 0 174.21599979512936 44.30435048984546 1.65
528 1 1 0 177.31861781632432 43.7021609730127 1.65
529 1 1 0 181.03810000973036 40.015793098056804 1.65
530 1 1 0 52.40769600240033 13.216207774200482 1.65
531 1 1 0 186.83720817811857 40.73262149543246 1.65
532 1 1 0 183.77031438603183 42.05710122775782 1.65
533 1 1 0 193.21166277135492 41.18911764658168 1.65
534 1 1 0 189.8881947169543 42.6440378945944 1.65
535 1 1 0 68.2819595769217 13.621823197744412 1.65
536 1 1 0 65.33439712796857 14.51022379574562 1.65
537 1 1 0 199.67133332078762 41.621062790953715 1.65
538 1 1 0 1.0378953508031827 42.53960486439174 1.65
539 1 1 0 2.804686974684415 39.62397840358755 1.65
540 1 1 0 202.57067943725872 43.51484684392591 1.65
541 1 1 0 110.29796854562592 46.58880239361733 1.65
542 1 1 0 105.10708836648581 47.429039087574246 1.65
543 1 1 0 104.43922419924718 44.831938232656405 1.65
544 1 1 0 108.09060540385201 48.696302927447455 1.65
545 1 1 0 78.84800479614685 15.010034396915252 1.65
546 1 1 0 82.01918946219511 14.579319660954097 1.65
547 1 1 0 113.55912434851791 47.11647814506878 1.65
548 1 1 0 124.43876585973965 45.501218758086296 1.65
549 1 1 0 120.87885968770141 45.96840748172297 1.65
550 1 1 0 92.45791530539503 17.050751089482215 1.65
551 1 1 0 97.368584308193 16.86173863685453 1.65
552 1 1 0 94.52906018384695 18.217051572351583 1.65
553 1 1 0 131.16992951496394 48.310588965589375 1.65
554 1 1 0 126.08527394018388 48.06842017206225 1.65
555 1 1 0 129.29790302006967 49.512026572022954 1.65
556 1 1 0 136.01487476299656 46.49722605584843 1.65
557 1 1 0 139.04104902809186 45.982449181770136 1.65
558 1 1 0 15.113318973154305 18.511606179888588 1.65
559 1 1 0 12.061716001749694 18.862024685085867 1.65
560 1 1 0 29.90093148746563 18.25408594912913 1.65
561 1 1 0 26.506740906822202 19.16210566584717 1.65
562 1 1 0 45.39862946167658 16.556321121609265 1.65
563 1 1 0 41.962235195715486 17.367499185251567 1.65
564 1 1 0 53.071815900662386 15.610477106268297 1.65
565 1 1 0 50.66701236437545 18.21302345134925 1.65
566 1 1 0 47.588319606022225 18.920578556968692 1.65
567 1 1 0 196.16723706911736 43.00640854759752 1.65
568 1 1 0 58.94969283468514 16.025112939580005 1.65
569 1 1 0 56.141058844374434 16.87857491189459 1.65
570 1 1 0 64.61240465519411 17.61234237655249 1.65
571 1 1 0 61.27344602929243 18.530798721961613 1.65
572 1 1 0 3.8291895501250584 44.964752339338176 1.65
573 1 1 0 6.89320218312174 40.10776799648898 1.65
574 1 1 0 7.277853788294238 43.56674570211321 1.65