ITEM: TIMESTEP
1525
ITEM: NUMBER OF ATOMS
15636
ITEM: BOX BOUNDS pp pp pp
0.0000000000000000e+00 2.0518857696979265e+02
0.0000000000000000e+00 1.7735209636185186e+02
-1.0000000000000000e+02 1.0000000000000000e+02
ITEM: ATOMS id type element x y z v_uncoordination
1 1 Si 188.369 28.9358 1.6242 0
2 1 Si 188.336 32.3899 1.61939 0
3 1 Si 183.09 31.6626 1.62369 0
4 1 Si 185.464 33.7655 1.62379 0
5 1 Si 185.851 26.7591 1.61988 0
6 1 Si 183.121 28.507 1.62801 0
7 1 Si 193.522 33.4183 1.63526 0
8 1 Si 193.388 29.9691 1.63022 0
9 1 Si 190.461 35.011 1.61481 0
10 1 Si 191.209 27.3926 1.6182 0
11 1 Si 180.421 33.3558 1.62956 0
12 1 Si 181.028 36.4301 1.63337 0
13 1 Si 184.205 36.7142 1.6183 0
14 1 Si 196.578 35.105 1.64484 0
15 1 Si 199.488 33.3393 1.61975 0
16 1 Si 195.695 27.7793 1.61722 0
17 1 Si 198.814 27.7351 1.63301 0
18 1 Si 200.61 30.2541 1.61668 0
19 1 Si 196.815 38.5491 1.63376 0
20 1 Si 189.013 38.382 1.62543 0
21 1 Si 194.234 40.5434 1.60445 0
22 1 Si 190.974 41.0311 1.63241 0
23 1 Si 202.585 34.2964 1.62165 0
24 1 Si 203.561 37.3333 1.60883 0
25 1 Si 202.467 40.3921 1.6265 0
26 1 Si 199.261 40.9283 1.62748 0
27 1 Si 188.08 49.735 1.63807 0
28 1 Si 187.312 46.381 1.63464 0
29 1 Si 185.581 52.0405 1.64803 0
30 1 Si 183.972 45.4127 1.62981 0
31 1 Si 181.362 47.7383 1.64734 0
32 1 Si 182.291 51.0738 1.6411 0
33 1 Si 191.312 50.879 1.65074 0
34 1 Si 190.022 44.2874 1.61969 0
35 1 Si 192.963 45.703 1.63199 0
36 1 Si 193.915 48.814 1.64233 0
37 1 Si 192.255 54.0922 1.65241 0
38 1 Si 186.46 55.3459 1.65069 0
39 1 Si 189.748 56.3284 1.64745 0
40 1 Si 114.486 3.57896 1.64081 0
41 1 Si 113.781 6.6343 1.61161 0
42 1 Si 111.96 1.7263 1.6213 0
43 1 Si 110.63 5.78293 1.63655 0
44 1 Si 109.023 2.92798 1.59764 0
45 1 Si 117.364 2.34033 1.63071 0
46 1 Si 119.638 4.48989 1.62797 0
47 1 Si 119.144 7.65321 1.6268 0
48 1 Si 116.157 8.8525 1.65383 0
49 1 Si 118.059 176.559 1.62068 0
50 1 Si 115.35 174.773 1.63614 0
51 1 Si 112.379 176.003 1.61283 0
52 1 Si 122.66 3.64839 1.62263 0
53 1 Si 123.748 6.68133 1.63419 0
54 1 Si 121.883 9.31756 1.60214 0
55 1 Si 123.766 0.646329 1.64361 0
56 1 Si 121.266 175.875 1.62938 0
57 1 Si 128.102 3.3676 1.6129 0
58 1 Si 126.778 6.18567 1.60165 0
59 1 Si 127.017 0.439062 1.62745 0
60 1 Si 131.109 4.21319 1.64154 0
61 1 Si 129.721 7.10295 1.64172 0
62 1 Si 133.603 2.00681 1.64732 0
63 1 Si 132.675 175.984 1.60907 0
64 1 Si 129.394 175.576 1.61917 0
65 1 Si 136.592 3.61718 1.62238 0
66 1 Si 136.293 6.89174 1.64301 0
67 1 Si 133.684 9.05272 1.62147 0
68 1 Si 130.402 10.1631 1.61935 0
69 1 Si 140.006 3.13575 1.62373 0
70 1 Si 141.916 5.93516 1.61877 0
71 1 Si 139.397 7.99306 1.63101 0
72 1 Si 141.596 0.183914 1.62407 0
73 1 Si 137.233 172.28 1.61936 0
74 1 Si 133.996 172.661 1.62421 0
75 1 Si 139.789 174.578 1.59217 0
76 1 Si 148.438 6.75414 1.61976 0
77 1 Si 145.067 7.3045 1.64481 0
78 1 Si 150.764 9.15383 1.62642 0
79 1 Si 145.565 10.4614 1.60675 0
80 1 Si 148.573 11.3425 1.62553 0
81 1 Si 150.403 4.17471 1.62761 0
82 1 Si 148.499 1.17457 1.6106 0
83 1 Si 145.094 177.098 1.60822 0
84 1 Si 154.064 5.24768 1.633 0
85 1 Si 156.118 2.77145 1.63007 0
86 1 Si 154.26 0.0739915 1.62205 0
87 1 Si 151.111 176.431 1.62309 0
88 1 Si 156.414 7.99847 1.62132 0
89 1 Si 153.917 10.1251 1.63934 0
90 1 Si 159.465 2.58452 1.62153 0
91 1 Si 159.709 176.756 1.63667 0
92 1 Si 156.789 175.482 1.62812 0
93 1 Si 162.51 3.99317 1.62976 0
94 1 Si 163.105 7.21011 1.61635 0
95 1 Si 160.065 9.21069 1.6364 0
96 1 Si 165.434 2.36537 1.61356 0
97 1 Si 165.25 176.561 1.63973 0
98 1 Si 162.44 175.088 1.63887 0
99 1 Si 168.752 2.36937 1.63277 0
100 1 Si 169.976 5.28507 1.62708 0
101 1 Si 166.797 7.20321 1.63081 0
102 1 Si 170.553 176.987 1.61203 0
103 1 Si 168.042 175.064 1.60916 0
104 1 Si 173.593 5.18114 1.61975 0
105 1 Si 174.117 8.36983 1.6378 0
106 1 Si 168.037 10.1343 1.63302 0
107 1 Si 171.291 9.95506 1.62916 0
108 1 Si 176.539 3.19063 1.63874 0
109 1 Si 176.507 177.052 1.62734 0
110 1 Si 173.401 175.394 1.62762 0
111 1 Si 179.727 4.57326 1.63528 0
112 1 Si 181.735 7.30331 1.62443 0
113 1 Si 177.02 9.88013 1.61078 0
114 1 Si 180.309 10.1406 1.62852 0
115 1 Si 182.445 2.91677 1.63145 0
116 1 Si 182.641 177.148 1.63406 0
117 1 Si 179.642 175.479 1.63771 0
118 1 Si 185.285 4.41304 1.62895 0
119 1 Si 185.112 7.54412 1.63401 0
120 1 Si 188.004 2.77386 1.61386 0
121 1 Si 186.042 0.0645126 1.62526 0
122 1 Si 191.009 4.28499 1.64298 0
123 1 Si 190.915 7.69964 1.62552 0
124 1 Si 187.95 9.43597 1.63375 0
125 1 Si 194.015 2.6984 1.61723 0
126 1 Si 196.091 0.0399644 1.62354 0
127 1 Si 187.837 174.808 1.62882 0
128 1 Si 191.195 174.728 1.58757 0
129 1 Si 194.595 174.602 1.62903 0
130 1 Si 196.665 4.46351 1.62305 0
131 1 Si 196.719 7.62359 1.61605 0
132 1 Si 193.855 9.32718 1.65417 0
133 1 Si 199.591 3.15101 1.61924 0
134 1 Si 199.519 177.33 1.61936 0
135 1 Si 202.204 5.04857 1.60609 0
136 1 Si 200.029 7.56007 1.62577 0
137 1 Si 0.317402 3.98935 1.64273 0
138 1 Si 0.457467 0.406311 1.62527 0
139 1 Si 202.639 175.819 1.6334 0
140 1 Si 3.15579 6.42108 1.62041 0
141 1 Si 201.318 10.3761 1.62786 0
142 1 Si 204.493 10.9106 1.61855 0
143 1 Si 2.43411 9.76987 1.63261 0
144 1 Si 6.81192 6.18147 1.62792 0
145 1 Si 8.11224 3.08387 1.62838 0
146 1 Si 6.6163 0.00863221 1.62057 0
147 1 Si 3.46016 175.926 1.63503 0
148 1 Si 102.832 8.6091 1.62828 0
149 1 Si 101.978 5.4244 1.61748 0
150 1 Si 100.81 11.2344 1.60029 0
151 1 Si 98.7834 6.2635 1.61948 0
152 1 Si 96.592 8.70351 1.61796 0
153 1 Si 97.5779 11.6459 1.61508 0
154 1 Si 108.906 8.31651 1.62978 0
155 1 Si 105.921 9.15985 1.61033 0
156 1 Si 103.263 2.21277 1.62363 0
157 1 Si 106.364 0.888076 1.62974 0
158 1 Si 110.18 11.1651 1.60263 0
159 1 Si 107.171 12.0085 1.59981 0
160 1 Si 115.742 12.0836 1.62227 0
161 1 Si 112.634 13.1494 1.63094 0
162 1 Si 121.631 12.635 1.62977 0
163 1 Si 118.416 14.07 1.62281 0
164 1 Si 134.525 12.0714 1.63614 0
165 1 Si 128.008 12.8392 1.61159 0
166 1 Si 133.15 14.8813 1.63922 0
167 1 Si 130.07 15.3437 1.60569 0
168 1 Si 139.931 11.1302 1.63416 0
169 1 Si 144.616 13.5112 1.63177 0
170 1 Si 141.564 13.9359 1.63159 0
171 1 Si 137.461 12.8927 1.63619 0
172 1 Si 124.607 14.2326 1.64304 0
173 1 Si 149.094 14.4147 1.62404 0
174 1 Si 146.45 16.1866 1.61295 0
175 1 Si 154.596 13.3116 1.63368 0
176 1 Si 152.069 15.4195 1.62578 0
177 1 Si 160.604 12.659 1.61756 0
178 1 Si 157.694 14.3369 1.62411 0
179 1 Si 166.567 13.0974 1.63346 0
180 1 Si 163.58 14.4891 1.64681 0
181 1 Si 171.559 13.0291 1.62329 0
182 1 Si 169.14 14.977 1.61171 0
183 1 Si 176.87 12.9785 1.60427 0
184 1 Si 174.228 14.4998 1.6425 0
185 1 Si 181.976 13.0775 1.62303 0
186 1 Si 179.326 14.85 1.59161 0
187 1 Si 129.337 43.4366 1.62244 0
188 1 Si 127.17 41.0454 1.62406 0
189 1 Si 132.529 42.8045 1.63654 0
190 1 Si 131.481 37.0327 1.63489 0
191 1 Si 128.223 37.9846 1.63212 0
192 1 Si 133.673 39.6056 1.63008 0
193 1 Si 127.742 46.2474 1.62057 0
194 1 Si 124.077 42.1002 1.62242 0
195 1 Si 124.606 45.3104 1.62388 0
196 1 Si 134.461 45.4819 1.61218 0
197 1 Si 129.201 49.1547 1.62694 0
198 1 Si 134.742 48.7362 1.61906 0
199 1 Si 132.167 50.4602 1.62229 0
200 1 Si 187.989 12.9128 1.63003 0
201 1 Si 185.001 14.6441 1.63527 0
202 1 Si 193.764 12.6218 1.61639 0
203 1 Si 191.053 14.5676 1.61303 0
204 1 Si 199.506 13.0166 1.61638 0
205 1 Si 196.534 14.3377 1.62804 0
206 1 Si 202.65 13.5359 1.62067 0
207 1 Si 106.341 14.9503 1.62428 0
208 1 Si 103.44 16.0453 1.61251 0
209 1 Si 100.849 14.3869 1.62567 0
210 1 Si 111.566 16.2544 1.6365 0
211 1 Si 108.45 17.2738 1.60825 0
212 1 Si 117.161 17.2181 1.6173 0
213 1 Si 114.041 18.2462 1.6228 0
214 1 Si 123.81 17.5477 1.61148 0
215 1 Si 118.436 20.23 1.62236 0
216 1 Si 121.657 20.1524 1.63839 0
217 1 Si 137.866 15.9423 1.63615 0
218 1 Si 135.15 17.3311 1.62904 0
219 1 Si 140.686 17.0952 1.64764 0
220 1 Si 203.756 16.4028 1.62619 0
221 1 Si 1.80079 16.7424 1.61157 0
222 1 Si 4.699 15.2858 1.62343 0
223 1 Si 5.01999 12.0206 1.61591 0
224 1 Si 129.59 18.5267 1.61862 0
225 1 Si 126.514 19.1932 1.63358 0
226 1 Si 135.081 20.4727 1.64126 0
227 1 Si 131.89 20.8725 1.62947 0
228 1 Si 151.765 18.646 1.61859 0
229 1 Si 146.357 19.5054 1.63916 0
230 1 Si 149.348 20.8839 1.63892 0
231 1 Si 157.198 17.4778 1.62119 0
232 1 Si 154.739 19.4963 1.63387 0
233 1 Si 170.813 17.7155 1.64535 0
234 1 Si 164.081 17.8603 1.62429 0
235 1 Si 166.244 20.4385 1.61787 0
236 1 Si 169.475 20.5742 1.62332 0
237 1 Si 174.024 17.5822 1.57768 0
238 1 Si 177.231 17.2806 1.63936 0
239 1 Si 184.897 18.0569 1.647 0
240 1 Si 178.774 19.9233 1.62936 0
241 1 Si 181.978 19.4964 1.60947 0
242 1 Si 192.303 17.782 1.62877 0
243 1 Si 187.157 20.6214 1.63867 0
244 1 Si 190.557 20.8125 1.64683 0
245 1 Si 195.681 17.496 1.61135 0
246 1 Si 201.467 18.7138 1.61342 0
247 1 Si 198.259 19.5542 1.64959 0
248 1 Si 106.172 19.6688 1.63567 0
249 1 Si 102.929 19.1449 1.5823 0
250 1 Si 113.332 21.4024 1.62488 0
251 1 Si 107.175 22.6682 1.62482 0
252 1 Si 110.456 23.0101 1.61339 0
253 1 Si 116.275 22.7726 1.60574 0
254 1 Si 125.847 22.2066 1.6207 0
255 1 Si 122.883 23.1319 1.58032 0
256 1 Si 140.697 20.3642 1.63283 0
257 1 Si 137.864 22.256 1.63916 0
258 1 Si 143.728 21.6216 1.61701 0
259 1 Si 162.002 20.2095 1.62529 0
260 1 Si 158.993 19.9668 1.63473 0
261 1 Si 1.70453 19.9128 1.6335 0
262 1 Si 203.823 20.8606 1.633 0
263 1 Si 4.28518 21.8436 1.62339 0
264 1 Si 7.52013 17.0919 1.62397 0
265 1 Si 7.42296 20.5026 1.63282 0
266 1 Si 131.194 23.9471 1.61509 0
267 1 Si 128.102 24.2583 1.61518 0
268 1 Si 137.904 25.6858 1.61788 0
269 1 Si 132.318 26.9373 1.63277 0
270 1 Si 135.342 28.0718 1.62161 0
271 1 Si 149.827 24.2294 1.65476 0
272 1 Si 143.914 25.0164 1.62485 0
273 1 Si 147.093 26.2848 1.62426 0
274 1 Si 154.906 22.6424 1.62912 0
275 1 Si 153.067 25.2045 1.63802 0
276 1 Si 165.453 23.6831 1.61719 0
277 1 Si 162.402 23.3481 1.63082 0
278 1 Si 157.92 22.8818 1.63161 0
279 1 Si 171.176 23.4004 1.60668 0
280 1 Si 166.59 26.8309 1.62955 0
281 1 Si 169.811 26.4082 1.62608 0
282 1 Si 177.096 22.6362 1.60689 0
283 1 Si 174.314 24.1899 1.63264 0
284 1 Si 182.433 22.5736 1.61784 0
285 1 Si 179.803 24.2576 1.62115 0
286 1 Si 185.49 23.4853 1.62747 0
287 1 Si 191.974 24.0291 1.62595 0
288 1 Si 197.701 22.7503 1.63091 0
289 1 Si 195.111 24.6172 1.62542 0
290 1 Si 203.084 23.9141 1.62709 0
291 1 Si 200.086 24.8369 1.61926 0
292 1 Si 0.163152 26.1709 1.62809 0
293 1 Si 3.32289 25.0495 1.64158 0
294 1 Si 105.197 25.304 1.60165 0
295 1 Si 102.268 26.8354 1.62558 0
296 1 Si 99.6416 19.239 1.63927 0
297 1 Si 97.7655 21.8813 1.6164 0
298 1 Si 99.1506 25.0969 1.61323 0
299 1 Si 110.469 26.2134 1.62909 0
300 1 Si 107.536 27.4968 1.6293 0
301 1 Si 116.055 26.0693 1.64246 0
302 1 Si 113.19 27.8976 1.62486 0
303 1 Si 124.04 26.1119 1.63898 0
304 1 Si 118.783 27.7478 1.60701 0
305 1 Si 121.949 28.3458 1.62513 0
306 1 Si 127.062 27.1444 1.60764 0
307 1 Si 141.027 27.0124 1.63832 0
308 1 Si 180.177 27.3498 1.63035 0
309 1 Si 129.716 28.8629 1.63917 0
310 1 Si 141.107 30.4652 1.62608 0
311 1 Si 135.207 31.5897 1.62607 0
312 1 Si 138.382 32.8238 1.62496 0
313 1 Si 155.32 27.792 1.63351 0
314 1 Si 147.357 29.6711 1.63032 0
315 1 Si 150.506 31.1631 1.62193 0
316 1 Si 153.955 30.7218 1.62045 0
317 1 Si 159.923 25.2108 1.6407 0
318 1 Si 158.782 28.104 1.63083 0
319 1 Si 161.461 30.1911 1.61387 0
320 1 Si 164.917 29.9015 1.63281 0
321 1 Si 174.715 27.388 1.61441 0
322 1 Si 171.917 28.9124 1.61498 0
323 1 Si 177.448 28.9801 1.63639 0
324 1 Si 203.679 29.0276 1.6266 0
325 1 Si 106.874 30.6544 1.62138 0
326 1 Si 103.512 30.1092 1.62168 0
327 1 Si 112.527 31.2203 1.62431 0
328 1 Si 109.518 32.9481 1.64295 0
329 1 Si 118.064 30.7624 1.61336 0
330 1 Si 115.454 32.5796 1.63663 0
331 1 Si 123.603 31.118 1.63537 0
332 1 Si 120.74 32.323 1.65011 0
333 1 Si 144.372 31.5074 1.62054 0
334 1 Si 177.525 32.1348 1.65036 0
335 1 Si 204.877 31.9424 1.62247 0
336 1 Si 2.85786 32.2682 1.63022 0
337 1 Si 5.85397 27.1032 1.62524 0
338 1 Si 5.40882 30.3554 1.62707 0
339 1 Si 129.429 32.0127 1.61777 0
340 1 Si 126.274 32.9211 1.64794 0
341 1 Si 9.53199 8.69957 1.6242 0
342 1 Si 8.39435 11.882 1.62339 0
343 1 Si 11.4452 2.8214 1.61638 0
344 1 Si 11.9753 176.954 1.62242 0
345 1 Si 9.19042 175.27 1.62584 0
346 1 Si 132.292 33.6851 1.62028 0
347 1 Si 28.2629 3.29824 1.62069 0
348 1 Si 31.5294 2.7077 1.61154 0
349 1 Si 28.0037 6.60676 1.62873 0
350 1 Si 33.3571 5.44087 1.61626 0
351 1 Si 31.2139 7.91843 1.61671 0
352 1 Si 25.6774 1.18648 1.63239 0
353 1 Si 33.2778 177.317 1.63499 0
354 1 Si 28.5667 173.341 1.63 0
355 1 Si 25.832 175.24 1.61792 0
356 1 Si 31.6633 174.451 1.62815 0
357 1 Si 20.276 4.26749 1.63346 0
358 1 Si 21.5704 7.19745 1.62804 0
359 1 Si 22.4762 1.89794 1.60161 0
360 1 Si 24.8723 7.93552 1.61867 0
361 1 Si 144.562 34.781 1.65653 0
362 1 Si 142.142 36.9316 1.64642 0
363 1 Si 138.888 36.2854 1.6268 0
364 1 Si 38.5717 2.83079 1.63934 0
365 1 Si 36.6998 5.60449 1.63164 0
366 1 Si 36.6183 0.176493 1.61808 0
367 1 Si 150.149 34.3627 1.6287 0
368 1 Si 147.515 36.0722 1.631 0
369 1 Si 41.9684 2.75433 1.61532 0
370 1 Si 43.668 5.43254 1.6318 0
371 1 Si 38.4435 8.41665 1.63136 0
372 1 Si 41.8029 8.11462 1.62783 0
373 1 Si 45.1094 1.49016 1.62864 0
374 1 Si 44.2828 175.92 1.63787 0
375 1 Si 38.274 174.785 1.63649 0
376 1 Si 41.4225 174.713 1.61949 0
377 1 Si 156.559 32.9683 1.62941 0
378 1 Si 152.538 36.4126 1.61847 0
379 1 Si 155.64 36.0183 1.62663 0
380 1 Si 48.3994 2.07434 1.60197 0
381 1 Si 46.9306 4.97755 1.63369 0
382 1 Si 159.916 33.0877 1.625 0
383 1 Si 51.7888 1.4198 1.6403 0
384 1 Si 53.7275 4.20303 1.63573 0
385 1 Si 52.1569 7.21256 1.64322 0
386 1 Si 48.8902 7.49662 1.65037 0
387 1 Si 53.3836 175.671 1.65103 0
388 1 Si 48.1715 171.422 1.64 0
389 1 Si 45.7798 173.278 1.59973 0
390 1 Si 51.1351 173.013 1.6043 0
391 1 Si 57.1039 4.18049 1.6205 0
392 1 Si 60.1818 2.71168 1.63278 0
393 1 Si 60.1293 176.776 1.61881 0
394 1 Si 57.0387 175.218 1.60949 0
395 1 Si 58.1958 7.15266 1.62623 0
396 1 Si 56.7506 10.0204 1.62576 0
397 1 Si 53.5625 10.221 1.62633 0
398 1 Si 63.04 4.63026 1.62538 0
399 1 Si 61.3236 7.36704 1.61832 0
400 1 Si 66.4871 5.06599 1.62807 0
401 1 Si 66.7155 8.4957 1.61945 0
402 1 Si 61.5331 10.6149 1.61938 0
403 1 Si 64.6437 11.299 1.62683 0
404 1 Si 69.5568 2.93716 1.63419 0
405 1 Si 68.9904 177.144 1.61348 0
406 1 Si 63.0046 174.897 1.61533 0
407 1 Si 66.3532 175.238 1.62321 0
408 1 Si 172.129 32.1825 1.63707 0
409 1 Si 166.486 32.9431 1.62323 0
410 1 Si 169.569 34.0745 1.62605 0
411 1 Si 74.7436 5.56825 1.63624 0
412 1 Si 72.6401 8.02334 1.59576 0
413 1 Si 73.2828 2.68568 1.6282 0
414 1 Si 69.7575 9.45904 1.63299 0
415 1 Si 174.917 33.9369 1.63545 0
416 1 Si 77.9633 6.47438 1.6118 0
417 1 Si 74.7485 10.4002 1.61868 0
418 1 Si 77.8119 9.69643 1.62269 0
419 1 Si 75.9984 0.320181 1.61396 0
420 1 Si 74.7145 174.603 1.63318 0
421 1 Si 71.4832 175.066 1.60648 0
422 1 Si 81.1435 5.49641 1.63879 0
423 1 Si 82.0397 2.34362 1.62253 0
424 1 Si 79.4972 0.0755094 1.645 0
425 1 Si 87.9364 4.07257 1.64258 0
426 1 Si 86.9664 7.31363 1.62387 0
427 1 Si 85.4379 1.7667 1.62689 0
428 1 Si 83.7174 7.59291 1.62953 0
429 1 Si 91.1796 3.01224 1.64059 0
430 1 Si 93.5633 5.28802 1.64099 0
431 1 Si 93.3281 8.63308 1.60612 0
432 1 Si 88.1538 10.5347 1.63267 0
433 1 Si 91.3443 11.5007 1.62696 0
434 1 Si 92.4536 177.217 1.61107 0
435 1 Si 88.6691 173.614 1.63446 0
436 1 Si 91.7631 173.989 1.6266 0
437 1 Si 86.3708 175.955 1.6147 0
438 1 Si 96.6248 3.97708 1.62731 0
439 1 Si 97.8795 0.95789 1.64362 0
440 1 Si 95.5234 176.194 1.63184 0
441 1 Si 100.98 177.125 1.63295 0
442 1 Si 109.307 36.6718 1.63611 0
443 1 Si 106.155 38.1718 1.63578 0
444 1 Si 103.387 36.0275 1.62487 0
445 1 Si 101.807 32.9192 1.62876 0
446 1 Si 14.0326 4.93183 1.63215 0
447 1 Si 13.1466 8.22481 1.61761 0
448 1 Si 17.069 3.39334 1.6223 0
449 1 Si 17.3722 0.110623 1.63089 0
450 1 Si 14.8423 175.402 1.62689 0
451 1 Si 116.665 35.5454 1.6298 0
452 1 Si 112.011 39.091 1.62571 0
453 1 Si 115.401 38.5049 1.62133 0
454 1 Si 19.2016 9.50657 1.59735 0
455 1 Si 15.9139 10.3811 1.63758 0
456 1 Si 119.873 35.2816 1.62284 0
457 1 Si 20.4997 176.732 1.60059 0
458 1 Si 24.6682 11.1623 1.62928 0
459 1 Si 21.4005 11.9018 1.61296 0
460 1 Si 125.569 36.0699 1.64004 0
461 1 Si 122.448 37.132 1.61775 0
462 1 Si 33.1155 10.8112 1.62664 0
463 1 Si 27.5426 12.8516 1.63107 0
464 1 Si 30.9316 13.2514 1.62472 0
465 1 Si 36.7295 11.3143 1.61964 0
466 1 Si 148.745 39.0622 1.63298 0
467 1 Si 143.511 39.8639 1.62319 0
468 1 Si 146.47 41.1687 1.61719 0
469 1 Si 43.9162 10.5225 1.63505 0
470 1 Si 47.1851 10.2374 1.63435 0
471 1 Si 161.727 35.8863 1.63236 0
472 1 Si 164.973 35.8448 1.61808 0
473 1 Si 58.8042 12.5052 1.62334 0
474 1 Si 70.1325 12.6405 1.61546 0
475 1 Si 73.2619 13.1514 1.62461 0
476 1 Si 175.554 37.1571 1.64501 0
477 1 Si 178.585 38.4642 1.64505 0
478 1 Si 83.2591 10.704 1.61286 0
479 1 Si 80.2667 11.7639 1.62145 0
480 1 Si 1.53519 37.5979 1.6199 0
481 1 Si 3.69377 35.3362 1.61907 0
482 1 Si 85.6894 12.7628 1.59473 0
483 1 Si 10.1073 14.9659 1.62895 0
484 1 Si 137.01 39.1829 1.63533 0
485 1 Si 151.888 39.5111 1.5912 0
486 1 Si 39.1347 13.9386 1.64757 0
487 1 Si 42.6135 13.4603 1.6236 0
488 1 Si 48.7085 13.0651 1.62476 0
489 1 Si 52.1039 13.2442 1.63839 0
490 1 Si 157.236 38.8422 1.62522 0
491 1 Si 160.566 38.9444 1.62071 0
492 1 Si 170.159 37.3114 1.62027 0
493 1 Si 167.123 38.3288 1.61935 0
494 1 Si 64.9635 14.6684 1.6124 0
495 1 Si 68.138 15.0737 1.61826 0
496 1 Si 172.952 39.0613 1.63955 0
497 1 Si 74.614 15.9676 1.62828 0
498 1 Si 80.5589 14.9383 1.61838 0
499 1 Si 77.7649 16.6076 1.61876 0
500 1 Si 95.7585 14.3588 1.6261 0
501 1 Si 92.5012 14.8922 1.63151 0
502 1 Si 185.651 39.5483 1.63348 0
503 1 Si 98.2929 16.2826 1.60779 0
504 1 Si 105.765 41.7684 1.63005 0
505 1 Si 102.543 43.0455 1.62912 0
506 1 Si 100.657 37.655 1.61109 0
507 1 Si 100.094 40.8367 1.64316 0
508 1 Si 108.537 44.0278 1.61761 0
509 1 Si 111.517 42.4922 1.61652 0
510 1 Si 121.386 40.1801 1.64234 0
511 1 Si 118.044 40.665 1.62414 0
512 1 Si 15.9893 13.7266 1.6114 0
513 1 Si 13.5816 16.1411 1.63283 0
514 1 Si 19.2574 14.3668 1.62301 0
515 1 Si 26.6285 15.8338 1.62489 0
516 1 Si 20.6091 17.2667 1.63089 0
517 1 Si 23.8435 17.3721 1.6403 0
518 1 Si 138.638 42.122 1.6314 0
519 1 Si 141.81 42.5002 1.63547 0
520 1 Si 32.2207 16.3307 1.62646 0
521 1 Si 29.3155 17.5447 1.62443 0
522 1 Si 154.738 40.9767 1.63251 0
523 1 Si 163.03 41.3509 1.62447 0
524 1 Si 166.634 41.5079 1.63883 0
525 1 Si 38.0325 17.1239 1.61545 0
526 1 Si 34.9112 18.2799 1.62683 0
527 1 Si 45.7789 14.7162 1.62686 0
528 1 Si 57.6734 15.691 1.63253 0
529 1 Si 54.1903 16.0005 1.62459 0
530 1 Si 179.607 41.5832 1.64185 0
531 1 Si 173.373 42.3674 1.61897 0
532 1 Si 176.841 43.6554 1.64526 0
533 1 Si 183.112 42.1076 1.65211 0
534 1 Si 63.4956 17.6899 1.63094 0
535 1 Si 59.957 18.3286 1.62385 0
536 1 Si 69.3229 18.0286 1.61509 0
537 1 Si 72.564 18.4658 1.63394 0
538 1 Si 2.44403 40.6105 1.62522 0
539 1 Si 205.003 42.5328 1.61883 0
540 1 Si 83.8468 15.5081 1.62588 0
541 1 Si 5.64644 41.069 1.64276 0
542 1 Si 6.8128 35.7635 1.6221 0
543 1 Si 8.01507 38.7244 1.63967 0
544 1 Si 109.184 47.5718 1.62345 0
545 1 Si 106.704 49.6097 1.63111 0
546 1 Si 103.538 48.8165 1.61706 0
547 1 Si 101.45 46.2559 1.64719 0
548 1 Si 114.038 44.6741 1.62004 0
549 1 Si 117.152 43.764 1.6338 0
550 1 Si 84.6516 18.6482 1.62588 0
551 1 Si 91.6399 18.4777 1.64624 0
552 1 Si 88.1781 19.6521 1.60925 0
553 1 Si 137.628 45.1778 1.6249 0
554 1 Si 46.1504 17.8687 1.62382 0
555 1 Si 39.9549 19.8115 1.62147 0
556 1 Si 43.2502 19.5522 1.62422 0
557 1 Si 146.795 44.3472 1.61638 0
558 1 Si 143.684 45.1213 1.6205 0
559 1 Si 49.3047 19.1507 1.64032 0
560 1 Si 52.7442 19.0752 1.63389 0
561 1 Si 155.068 44.1571 1.63654 0
562 1 Si 149.113 46.5717 1.62975 0
563 1 Si 152.414 46.2221 1.61484 0
564 1 Si 161.474 44.1577 1.63891 0
565 1 Si 158.273 44.9893 1.59729 0
566 1 Si 66.399 19.5154 1.62275 0
567 1 Si 77.9118 19.8082 1.6058 0
568 1 Si 74.6906 20.9148 1.63724 0
569 1 Si 169.945 43.3597 1.63378 0
570 1 Si 163.577 46.5579 1.62523 0
571 1 Si 169.763 46.6432 1.63368 0
572 1 Si 166.606 47.5135 1.62862 0
573 1 Si 81.3644 20.1232 1.62703 0
574 1 Si 94.3448 21.1734 1.62064 0
575 1 Si 195.287 43.5575 1.6193 0
576 1 Si 15.2402 19.4149 1.63739 0
577 1 Si 10.0907 22.7244 1.62205 0
578 1 Si 13.6522 22.4664 1.62679 0
579 1 Si 198.429 44.1404 1.6263 0
580 1 Si 18.7241 20.0027 1.62983 0
581 1 Si 114.348 47.9525 1.6282 0
582 1 Si 111.866 49.9503 1.62317 0
583 1 Si 25.0183 20.2456 1.61174 0
584 1 Si 23.7936 23.1303 1.63426 0
585 1 Si 20.5172 22.9791 1.62212 0
586 1 Si 119.062 46.3316 1.61074 0
587 1 Si 122.109 47.2717 1.63284 0
588 1 Si 28.1529 20.3896 1.63016 0
589 1 Si 34.8704 21.6306 1.62454 0
590 1 Si 29.2531 23.3048 1.61581 0
591 1 Si 32.454 23.9704 1.62727 0
592 1 Si 38.0216 22.5463 1.61757 0
593 1 Si 142.562 48.1193 1.6272 0
594 1 Si 139.328 48.0032 1.64019 0
595 1 Si 44.9348 22.1477 1.61303 0
596 1 Si 48.0825 22.0239 1.62554 0
597 1 Si 54.771 21.9696 1.6178 0
598 1 Si 58.4372 21.5209 1.62515 0
599 1 Si 158.362 48.1649 1.61394 0
600 1 Si 161.376 48.802 1.62571 0
601 1 Si 66.9803 22.7014 1.62892 0
602 1 Si 73.3324 23.9505 1.64397 0
603 1 Si 69.8893 24.5179 1.62104 0
604 1 Si 177.923 46.9281 1.63656 0
605 1 Si 87.982 23.0064 1.62445 0
606 1 Si 81.6912 23.2555 1.62639 0
607 1 Si 84.8748 24.1663 1.6226 0
608 1 Si 93.7448 24.4497 1.62878 0
609 1 Si 90.5433 25.2721 1.6339 0
610 1 Si 0.389377 45.802 1.64168 0
611 1 Si 199.673 47.253 1.64368 0
612 1 Si 203.026 48.0809 1.62619 0
613 1 Si 8.95235 25.9033 1.62014 0
614 1 Si 3.72769 46.5522 1.63323 0
615 1 Si 6.22697 44.2359 1.64058 0
616 1 Si 26.4786 25.0529 1.62048 0
617 1 Si 117.367 49.0317 1.61064 0
618 1 Si 38.5599 25.8106 1.63328 0
619 1 Si 44.3989 25.1212 1.61421 0
620 1 Si 41.5174 26.9453 1.56388 0
621 1 Si 49.6032 24.7893 1.64208 0
622 1 Si 52.8825 25.0197 1.62518 0
623 1 Si 144.659 50.6902 1.6333 0
624 1 Si 147.835 49.6402 1.62001 0
625 1 Si 60.6742 24.1561 1.6507 0
626 1 Si 64.0143 24.115 1.60086 0
627 1 Si 153.064 49.363 1.61183 0
628 1 Si 156.069 50.3401 1.65589 0
629 1 Si 172.127 49.0543 1.63522 0
630 1 Si 165.57 50.4804 1.61235 0
631 1 Si 170.415 51.8562 1.63707 0
632 1 Si 167.362 52.9227 1.63771 0
633 1 Si 79.1021 25.3162 1.60265 0
634 1 Si 75.835 26.2008 1.6338 0
635 1 Si 175.555 49.4337 1.63097 0
636 1 Si 96.2677 26.7388 1.61192 0
637 1 Si 197.221 49.5978 1.63787 0
638 1 Si 15.7718 25.345 1.62643 0
639 1 Si 11.0204 28.4014 1.6244 0
640 1 Si 14.2036 28.2048 1.62933 0
641 1 Si 107.417 52.841 1.61853 0
642 1 Si 104.574 54.2391 1.63594 0
643 1 Si 102.498 51.8487 1.62009 0
644 1 Si 112.692 53.4438 1.61811 0
645 1 Si 109.852 55.0201 1.63792 0
646 1 Si 19.1682 26.0348 1.62092 0
647 1 Si 122.236 50.48 1.61292 0
648 1 Si 119.218 51.6263 1.63194 0
649 1 Si 127.763 51.9657 1.62622 0
650 1 Si 124.673 52.5015 1.65202 0
651 1 Si 137.437 50.6047 1.61395 0
652 1 Si 33.0201 27.2594 1.62069 0
653 1 Si 36.2586 28.2174 1.62663 0
654 1 Si 143.613 53.9014 1.62425 0
655 1 Si 137.805 53.9261 1.62879 0
656 1 Si 140.663 55.4395 1.62629 0
657 1 Si 150.519 51.3825 1.63546 0
658 1 Si 47.117 26.7708 1.58439 0
659 1 Si 162.629 51.544 1.62089 0
660 1 Si 156.394 53.4933 1.62159 0
661 1 Si 161.821 54.5005 1.62803 0
662 1 Si 158.868 55.4894 1.6351 0
663 1 Si 53.6336 28.404 1.63036 0
664 1 Si 59.9281 27.428 1.63097 0
665 1 Si 57.0563 29.2957 1.61973 0
666 1 Si 65.3434 27.0263 1.62266 0
667 1 Si 68.5375 27.5271 1.63919 0
668 1 Si 176.695 52.6658 1.63799 0
669 1 Si 179.944 53.5657 1.64659 0
670 1 Si 84.3837 27.3485 1.64532 0
671 1 Si 81.1469 27.7744 1.6085 0
672 1 Si 90.1056 28.5966 1.62483 0
673 1 Si 86.9016 29.4777 1.61478 0
674 1 Si 203.958 51.3589 1.62714 0
675 1 Si 198.146 52.8106 1.64268 0
676 1 Si 201.468 53.6974 1.63153 0
677 1 Si 2.10695 52.197 1.63562 0
678 1 Si 4.60042 49.7821 1.64613 0
679 1 Si 7.66577 32.686 1.62298 0
680 1 Si 10.6018 31.6152 1.62227 0
681 1 Si 27.0055 28.2719 1.63003 0
682 1 Si 20.81 29.1865 1.64022 0
683 1 Si 24.1946 30.1514 1.64178 0
684 1 Si 30.3084 29.2913 1.63735 0
685 1 Si 118.36 54.7549 1.64879 0
686 1 Si 115.232 55.8121 1.63166 0
687 1 Si 44.5447 28.5806 1.66747 0
688 1 Si 44.0344 31.5877 1.62303 0
689 1 Si 50.9902 30.9503 1.62432 0
690 1 Si 47.5309 31.8716 1.60083 0
691 1 Si 132.789 53.6272 1.62132 0
692 1 Si 129.795 54.415 1.63077 0
693 1 Si 62.8524 28.9758 1.62982 0
694 1 Si 150.781 54.6082 1.62891 0
695 1 Si 145.494 56.5667 1.63777 0
696 1 Si 148.651 57.1256 1.63317 0
697 1 Si 69.5501 30.7062 1.62514 0
698 1 Si 75.4311 29.5104 1.62391 0
699 1 Si 72.8177 31.7591 1.62889 0
700 1 Si 153.871 55.4122 1.62196 0
701 1 Si 95.8572 30.1376 1.64192 0
702 1 Si 92.5526 30.9877 1.64846 0
703 1 Si 171.35 54.8513 1.64496 0
704 1 Si 174.561 55.2379 1.6354 0
705 1 Si 98.4142 32.5168 1.63256 0
706 1 Si 164.932 55.059 1.6292 0
707 1 Si 168.867 57.0327 1.62856 0
708 1 Si 165.619 58.0562 1.62821 0
709 1 Si 195.556 55.0022 1.64937 0
710 1 Si 15.4522 31.2136 1.62362 0
711 1 Si 18.6314 31.7387 1.63541 0
712 1 Si 109.409 58.3407 1.63172 0
713 1 Si 106.31 59.4776 1.64724 0
714 1 Si 103.803 57.3526 1.63169 0
715 1 Si 37.211 31.4545 1.64897 0
716 1 Si 31.132 32.5501 1.63231 0
717 1 Si 34.4536 33.5975 1.64097 0
718 1 Si 40.6357 32.4417 1.6213 0
719 1 Si 123.952 55.5591 1.6314 0
720 1 Si 120.993 56.612 1.61009 0
721 1 Si 135.13 55.8335 1.62987 0
722 1 Si 63.648 32.0913 1.63825 0
723 1 Si 57.7839 32.63 1.63461 0
724 1 Si 60.9021 33.94 1.63291 0
725 1 Si 66.9258 32.8878 1.62366 0
726 1 Si 140.768 58.7422 1.62269 0
727 1 Si 143.872 59.3348 1.61915 0
728 1 Si 78.6673 29.85 1.61415 0
729 1 Si 86.2544 32.6837 1.62685 0
730 1 Si 80.2137 32.4786 1.63985 0
731 1 Si 83.177 33.3893 1.63326 0
732 1 Si 180.725 56.9276 1.65251 0
733 1 Si 184.015 57.6903 1.63819 0
734 1 Si 91.5755 34.2081 1.61513 0
735 1 Si 88.4392 35.112 1.61774 0
736 1 Si 175.258 58.4405 1.62597 0
737 1 Si 178.345 59.4178 1.61416 0
738 1 Si 2.83533 55.5367 1.64167 0
739 1 Si 202.322 57.0018 1.62617 0
740 1 Si 0.414596 58.0876 1.64093 0
741 1 Si 13.1846 33.5241 1.62399 0
742 1 Si 6.10721 56.3958 1.62275 0
743 1 Si 7.97838 50.0486 1.61833 0
744 1 Si 10.2864 52.3637 1.62513 0
745 1 Si 9.33797 55.4118 1.62902 0
746 1 Si 25.1408 33.37 1.63745 0
747 1 Si 19.3151 34.9387 1.64117 0
748 1 Si 22.5528 35.4469 1.63565 0
749 1 Si 114.786 59.2032 1.6353 0
750 1 Si 111.803 60.6556 1.63052 0
751 1 Si 28.3751 34.5102 1.65146 0
752 1 Si 129.201 57.475 1.64282 0
753 1 Si 126.123 57.8514 1.63177 0
754 1 Si 52.1346 34.0525 1.62937 0
755 1 Si 46.9402 35.1087 1.61992 0
756 1 Si 49.8834 36.4647 1.61324 0
757 1 Si 122.184 59.5506 1.62897 0
758 1 Si 117.09 61.4746 1.61831 0
759 1 Si 120.192 61.8098 1.61398 0
760 1 Si 55.2937 34.8856 1.65085 0
761 1 Si 134.332 59.0436 1.64791 0
762 1 Si 131.235 59.9063 1.63266 0
763 1 Si 154.787 58.4195 1.63375 0
764 1 Si 149.482 60.3837 1.62898 0
765 1 Si 152.692 60.8126 1.65094 0
766 1 Si 157.959 58.5118 1.60927 0
767 1 Si 73.249 35.1608 1.61695 0
768 1 Si 67.4973 36.1123 1.62409 0
769 1 Si 70.668 37.2067 1.63518 0
770 1 Si 196.42 58.2358 1.63559 0
771 1 Si 199.688 59.1082 1.63286 0
772 1 Si 78.7973 35.2117 1.60305 0
773 1 Si 76.117 36.7924 1.65066 0
774 1 Si 81.7683 36.164 1.62025 0
775 1 Si 98.1052 35.7177 1.60948 0
776 1 Si 92.8746 37.2112 1.62627 0
777 1 Si 95.9127 37.9881 1.62407 0
778 1 Si 169.892 59.9293 1.63335 0
779 1 Si 172.94 60.7102 1.61499 0
780 1 Si 162.943 60.212 1.6343 0
781 1 Si 167.762 62.2073 1.60329 0
782 1 Si 164.664 62.7639 1.6327 0
783 1 Si 190.69 59.5665 1.65047 0
784 1 Si 193.96 60.5503 1.63155 0
785 1 Si 13.6993 36.7446 1.6446 0
786 1 Si 16.9608 37.3449 1.64163 0
787 1 Si 105.556 62.6737 1.64485 0
788 1 Si 111.105 63.9855 1.64157 0
789 1 Si 107.927 65.0227 1.63948 0
790 1 Si 35.272 36.8777 1.62006 0
791 1 Si 28.7514 37.8073 1.61592 0
792 1 Si 33.9144 39.9614 1.6251 0
793 1 Si 30.711 40.4875 1.63052 0
794 1 Si 125.121 60.7928 1.61851 0
795 1 Si 41.0818 35.6899 1.63138 0
796 1 Si 38.4362 37.6464 1.634 0
797 1 Si 139.249 61.6439 1.6369 0
798 1 Si 135.946 61.8288 1.62146 0
799 1 Si 44.1809 36.938 1.64415 0
800 1 Si 144.501 62.5015 1.62773 0
801 1 Si 147.675 63.2702 1.62261 0
802 1 Si 61.4718 37.2137 1.64264 0
803 1 Si 55.7375 38.1879 1.61606 0
804 1 Si 58.7932 39.2617 1.62555 0
805 1 Si 159.666 61.1621 1.64922 0
806 1 Si 64.7441 38.0552 1.62609 0
807 1 Si 184.796 60.9249 1.62751 0
808 1 Si 178.169 62.8145 1.60682 0
809 1 Si 181.647 62.3735 1.61198 0
810 1 Si 188.202 61.8214 1.6468 0
811 1 Si 88.1179 38.3914 1.62075 0
812 1 Si 82.8423 39.0779 1.62387 0
813 1 Si 85.6853 40.5289 1.62283 0
814 1 Si 90.9744 39.828 1.6077 0
815 1 Si 1.30344 61.5616 1.62125 0
816 1 Si 200.165 62.3291 1.60345 0
817 1 Si 0.016813 64.8768 1.62653 0
818 1 Si 202.03 64.9117 1.6372 0
819 1 Si 102.312 63.3644 1.633 0
820 1 Si 100.539 58.0031 1.63985 0
821 1 Si 99.7386 61.1699 1.62528 0
822 1 Si 11.2927 39.0879 1.63711 0
823 1 Si 113.232 66.5458 1.61614 0
824 1 Si 118.248 64.4728 1.64146 0
825 1 Si 116.462 67.0113 1.61528 0
826 1 Si 4.54879 62.0491 1.62928 0
827 1 Si 6.66397 59.553 1.62717 0
828 1 Si 23.0433 38.5696 1.63085 0
829 1 Si 26.0471 39.449 1.61506 0
830 1 Si 126.906 63.4705 1.64347 0
831 1 Si 130.242 62.9752 1.61936 0
832 1 Si 141.582 64.0257 1.62207 0
833 1 Si 50.4132 39.7721 1.62007 0
834 1 Si 44.5977 40.2651 1.62555 0
835 1 Si 47.6793 41.6954 1.6199 0
836 1 Si 53.5955 40.8091 1.63078 0
837 1 Si 154.12 63.6681 1.62141 0
838 1 Si 148.952 66.4861 1.62893 0
839 1 Si 152.414 66.4875 1.61614 0
840 1 Si 157.429 63.6977 1.63205 0
841 1 Si 169.305 64.9356 1.61145 0
842 1 Si 163.79 65.7617 1.61789 0
843 1 Si 166.791 66.8845 1.62201 0
844 1 Si 77.3422 39.7731 1.62388 0
845 1 Si 71.1466 40.4313 1.6271 0
846 1 Si 73.1993 42.9533 1.61675 0
847 1 Si 76.2601 42.7255 1.62874 0
848 1 Si 172.367 63.9066 1.62263 0
849 1 Si 80.3131 40.8618 1.62351 0
850 1 Si 175.233 65.2989 1.63115 0
851 1 Si 96.8698 41.0826 1.62213 0
852 1 Si 194.82 63.823 1.62015 0
853 1 Si 189.509 64.9166 1.61466 0
854 1 Si 192.59 66.2541 1.62097 0
855 1 Si 197.945 64.6363 1.62345 0
856 1 Si 107.152 68.2979 1.63655 0
857 1 Si 112.404 69.6914 1.62838 0
858 1 Si 109.324 70.8571 1.63566 0
859 1 Si 17.6841 40.554 1.64256 0
860 1 Si 12.0049 42.2629 1.63698 0