LAMMPS data file via write_data, version 2 Aug 2023, timestep = 153, units = metal

15756 atoms
2 atom types

8.422732897349057 197.6211115376128 xlo xhi
6.1548041496863695 171.7447156927609 ylo yhi
-100 100 zlo zhi

Masses

1 28.085
2 15.999

Atoms # full

9234 1 2 0 8.624471691393861 6.572265734647624 -2.171515249758088 1 0 0
6709 1 1 0 13.165331708864493 6.266902674859362 -1.648611014868909 0 0 0
9427 1 2 0 9.933582376347129 10.464860857853441 -2.219442548364306 0 0 0
9430 1 2 0 12.606103540320651 9.845090969765899 -2.1943388623827382 0 0 0
6703 1 1 0 11.43428122515481 10.866917754388638 -1.648753181006306 0 0 0
13274 1 2 0 13.128065215724124 6.285674602778486 4.6461083099936147e-07 0 0 0
9237 1 2 0 11.532322858985225 6.19813105664828 -2.158143502576243 0 1 0
9437 1 2 0 13.999891233226952 7.681212049076956 -2.1318573189498986 0 0 0
9667 1 2 0 18.424512873689135 6.620950508249475 -2.158058909577393 0 1 0
6708 1 1 0 14.087304183190266 9.316854316514531 -1.6445548881021639 0 0 0
9438 1 2 0 15.302744204554449 10.43588369730873 -2.1553363753430683 0 0 0
13273 1 2 0 14.219775615020135 9.31443734575201 7.029698347725106e-07 0 0 0
6860 1 1 0 19.705389256802835 7.592478949525838 -1.6380627312651856 0 0 0
9668 1 2 0 20.96901308233488 6.6734587140186195 -2.2072417050253867 0 0 0
6868 1 1 0 22.493069135172888 6.882095514856299 -1.6358819084311418 0 0 0
9678 1 2 0 23.190158576435536 8.268733102438652 -2.1905583318696986 0 0 0
9664 1 2 0 20.088524425985227 9.14583752139632 -2.186824681381853 0 0 0
6859 1 1 0 20.94340858545799 10.502397014378214 -1.6409593514752945 0 0 0
9676 1 2 0 25.014190880816766 10.203269298608118 -2.1303728293176003 0 0 0
6867 1 1 0 24.71265940679559 8.653431840898895 -1.6457329223068475 0 0 0
9666 1 2 0 22.460944555723863 10.938189822466919 -2.206231904480493 0 0 0
6866 1 1 0 23.961551286780004 11.4039893347079 -1.6412991981056713 0 0 0
13433 1 2 0 22.385773647288094 6.931570589006992 -4.730971378941012e-07 0 0 0
13431 1 2 0 23.865732953516236 11.552725471344454 -5.840007145250922e-08 0 0 0
9679 1 2 0 25.75879793729921 7.53083277710969 -2.2635641944262854 0 0 0
6872 1 1 0 27.254747626386315 7.207756283422293 -1.6421391643626848 0 0 0
9687 1 2 0 28.18014626384802 8.43944313751129 -2.1915563636163675 0 0 0
6878 1 1 0 29.6007978214283 9.019408403731234 -1.636791751665964 0 0 0
9696 1 2 0 29.520509587254267 10.54013037998042 -2.2002522923384458 0 0 0
13437 1 2 0 27.1927372516396 7.084553366085691 -4.128926068156083e-07 0 0 0
9697 1 2 0 30.938897671703273 8.306686973595447 -2.274139307610121 0 0 0
6881 1 1 0 32.07806546519202 7.298967094085441 -1.6439325257104758 0 0 0
9702 1 2 0 33.56917580665326 7.7209145357239 -2.186729620059717 0 0 0
9704 1 2 0 34.055894532541714 10.345942496561065 -2.2807792044810915 0 0 0
6883 1 1 0 34.57220131917589 8.907293284724492 -1.6461554162317527 0 0 0
9705 1 2 0 36.03991057111322 8.570521405294954 -2.276212994282922 0 0 0
6884 1 1 0 33.170382610983445 11.498397887359122 -1.5194562117143087 0 0 0
13446 1 2 0 32.0363223896063 7.293075684360282 -6.972189701088325e-09 0 0 0
9709 1 2 0 38.200154345347364 7.170526319313714 -2.1702585249955626 0 0 0
9724 1 2 0 41.530529364946034 7.380810963542575 -2.159749426085382 0 0 0
6886 1 1 0 37.56708239285695 8.63895906135404 -1.6482302544534362 0 0 0
9708 1 2 0 38.136174498509924 10.13511455628187 -2.1930695421693938 0 0 0
6895 1 1 0 42.731372824963046 8.385227379398568 -1.6424079255304103 0 0 0
9725 1 2 0 44.21595335884502 7.913668693714353 -2.228155450043134 0 0 0
6975 1 1 0 45.75327429740739 8.143389381601496 -1.641666281480037 0 0 0
9853 1 2 0 46.80018899465719 7.0258484631268106 -2.227426708739383 0 0 0
9722 1 2 0 42.292450667620024 9.883657914074357 -2.1798481664728544 0 0 0
9851 1 2 0 46.41878147087992 9.554822166641781 -2.164454962612455 0 0 0
6894 1 1 0 43.001309629050034 11.283356116894806 -1.6467563820353308 0 0 0
9723 1 2 0 44.50263887530514 11.431069315700485 -2.282121029782785 0 0 0
6974 1 1 0 45.96107356405899 11.050584014252088 -1.6430537577944389 0 0 0
13540 1 2 0 45.704352472139036 8.047723160814312 -9.407847172441193e-07 0 0 0
9753 1 2 0 50.9836815319773 6.589699623750569 -2.2129277557897495 0 0 0
6911 1 1 0 51.877000287555816 7.869998537889309 -1.6487619234252424 0 0 0
6909 1 1 0 50.77651276146508 10.667341774285076 -1.6468110961847344 0 0 0
9750 1 2 0 50.97348455288189 9.141018307711349 -2.2291580241516797 0 0 0
9749 1 2 0 52.13938997148346 11.442001386695926 -2.211539562427695 0 0 0
9751 1 2 0 49.47837983166108 11.515950598963318 -2.227830178850229 0 0 0
9741 1 2 0 53.46495743122987 7.938925480325529 -2.193505787880672 0 0 0
6904 1 1 0 55.0509800671559 7.836059713540676 -1.6490310697252777 0 0 0
9740 1 2 0 55.66814607200422 6.3963869442822725 -2.194382465744346 0 0 0
9732 1 2 0 56.126532684875826 8.9979167651689 -2.2176135626244977 0 0 0
6899 1 1 0 56.60153016344436 10.489269665737423 -1.6332384167765914 0 0 0
9731 1 2 0 55.32447683643215 11.415894793303336 -2.1610343260713543 0 0 0
9730 1 2 0 57.915940294962795 11.366203976912342 -2.1866515696884115 0 0 0
9744 1 2 0 60.657587831418944 6.853529810100669 -2.206812968437448 0 0 0
6906 1 1 0 61.90462888577391 7.829686498646323 -1.646184759243512 0 0 0
9745 1 2 0 63.39843519386318 7.249845939916368 -2.151219130758028 0 0 0
9742 1 2 0 61.83935981819769 9.397901993646574 -2.2150073836908626 0 0 0
6905 1 1 0 61.824785405727575 10.964500880038491 -1.64382354683895 0 0 0
9734 1 2 0 60.41851448318225 11.582929275560865 -2.198572211394962 0 0 0
6914 1 1 0 64.89557821300178 7.796506607561283 -1.6467048857138409 0 0 0
9758 1 2 0 66.17239847034435 6.883366919966775 -2.1872251749718674 0 0 0
9755 1 2 0 65.13813918775661 9.339066548629846 -2.2252379604720742 0 0 0
6912 1 1 0 66.08412840419298 10.57016375065645 -1.6432828245149258 0 0 0
9756 1 2 0 67.60781460079943 10.437429406215408 -2.2556580034706495 0 0 0
6915 1 1 0 69.02889639543159 10.998646844218044 -1.6453446536109233 0 0 0
9766 1 2 0 70.46366162204214 7.493641865762406 -2.201046878193088 0 0 0
9760 1 2 0 70.20808384528497 10.053607720000286 -2.2600482663797994 0 0 0
6919 1 1 0 71.17660965013307 8.88410102193706 -1.644645598203699 0 0 0
9767 1 2 0 72.68341882117467 9.33968885106201 -2.189821808891506 0 0 0
6926 1 1 0 73.90432669101742 10.347501191407197 -1.6472456713026506 0 0 0
9777 1 2 0 75.27071295986953 9.61825127140376 -2.2194403384293864 0 0 0
9781 1 2 0 76.46602934028168 7.189100343195234 -2.1493451323999846 0 0 0
6928 1 1 0 76.60652055740778 8.816887670151647 -1.646075147853498 0 0 0
9778 1 2 0 77.85599952433518 9.85353107143954 -2.148347567161784 0 0 0
6927 1 1 0 79.15888242902848 10.823882869632165 -1.6454152299462874 0 0 0
9780 1 2 0 80.45299469811043 9.904145269714906 -2.181028212989257 0 0 0
9787 1 2 0 81.01935282726501 7.118979637064296 -2.2178206347480627 0 0 0
6932 1 1 0 81.40009043922804 8.640258120062166 -1.6470412739325433 0 0 0
9788 1 2 0 82.9250444162181 8.921322763971645 -2.2256055016441296 0 0 0
9795 1 2 0 85.61053614527509 8.955356759806904 -2.252926204022943 0 0 0
6936 1 1 0 84.2560388044228 9.696913601546946 -1.6450234320118735 0 0 0
9794 1 2 0 84.17395849959397 11.263781876721325 -2.1641468849193513 0 0 0
9799 1 2 0 86.2167191030491 6.338444679310919 -2.2338163312582373 0 1 0
6939 1 1 0 86.64197477645091 7.817842486645235 -1.649261030865896 0 0 0
9800 1 2 0 88.15233952155954 8.094721808377031 -2.2724423489918824 0 0 0
6957 1 1 0 89.62084718957604 7.775688795793103 -1.5939836456133374 0 0 0
9829 1 2 0 90.45157742586896 6.518320237043144 -2.2904799529817383 0 0 0
9827 1 2 0 90.56845343605673 9.088068422733045 -1.8308833886801374 0 0 0
6956 1 1 0 90.6541425608296 10.713688565686375 -1.5895190744870862 0 0 0
9828 1 2 0 89.28615587016368 11.414756113339072 -2.247650301434008 0 0 0
9822 1 2 0 93.2729917220851 6.294979653646846 -2.205426047918844 0 0 0
6952 1 1 0 94.42951446410979 7.319083465957314 -1.6430779657566148 0 0 0
9821 1 2 0 95.89918130150676 6.798469445169311 -2.230875787485229 0 0 0
6951 1 1 0 93.58394859508296 10.269263358324332 -1.6533025806350035 0 0 0
9820 1 2 0 92.18519713998974 11.011401117260766 -2.215019772226314 0 0 0
9819 1 2 0 93.86358551344038 8.749400576110936 -2.236721753530702 0 0 0
9814 1 2 0 94.91173339594475 11.02738444800456 -2.258949973410491 0 0 0
13517 1 2 0 94.52803925914691 7.376697106755532 -8.377870573851013e-07 0 0 0
9823 1 2 0 100.87144747478217 7.4954583642737465 -2.1728240851419347 0 0 0
9812 1 2 0 100.20045080352565 10.301703621729077 -2.190843803154289 0 0 0
6953 1 1 0 101.22849541206308 9.065023771976287 -1.6479363901651074 0 0 0
9309 1 2 0 102.7752174493161 9.46554592751452 -2.1593373689076505 0 0 0
9810 1 2 0 97.64462186490302 11.277380717142867 -2.2004984138142656 0 0 0
6946 1 1 0 99.20375495312045 11.547330534013419 -1.6474540705285232 0 0 0
9824 1 2 0 98.55640274820344 6.301319551764016 -2.1988306817559993 0 1 0
13511 1 2 0 99.261619932789 11.528726438146643 -1.1746036971086473e-07 0 0 0
9429 1 2 0 11.844512426903266 12.329899410243579 -2.3004248772712383 0 0 0
6707 1 1 0 11.809723670573355 13.826879762436805 -1.6362703622114179 0 0 0
9434 1 2 0 10.427791897086747 14.563840831935343 -2.153137475948296 0 0 0
9436 1 2 0 13.07531380854965 14.771338656202381 -2.1225593828371325 0 0 0
6706 1 1 0 10.03414578778874 16.086261600023757 -1.641370491125725 0 0 0
9432 1 2 0 8.543343470321858 16.427550914419818 -2.2153805871428918 0 0 0
13271 1 2 0 10.080577129944116 16.16666189475274 -1.2403916659826497e-07 0 0 0
6858 1 1 0 16.047081387382363 11.902550738963024 -1.6478485523505662 0 0 0
9530 1 2 0 15.16976993561855 13.201812569596358 -2.2317358862232366 0 0 0
9663 1 2 0 17.58924728725861 12.386508461733184 -2.151072218113025 0 0 0
6861 1 1 0 19.08187582526684 13.003242233185388 -1.6353178221276605 0 0 0
6769 1 1 0 14.658450920558746 14.662886329586932 -1.636387951382879 0 0 0
9528 1 2 0 15.373369121871077 16.074200849723752 -2.182565603737271 0 0 0
9665 1 2 0 20.077996844993574 11.805377303641334 -2.153252536078184 0 0 0
9677 1 2 0 24.65260492547596 12.794843641819837 -2.241108606291327 0 0 0
9669 1 2 0 19.828962612556257 14.446334248389304 -2.1787666082849295 0 0 0
6870 1 1 0 20.670236608994642 15.82620994812859 -1.6468785882720236 0 0 0
9681 1 2 0 24.721542617884527 15.44893142841669 -2.191962948787701 0 0 0
9684 1 2 0 19.783892815810542 17.131158925152562 -2.1985109351279797 0 0 0
9683 1 2 0 22.23631759638625 16.235556871655014 -2.1621503250219796 0 0 0
6871 1 1 0 23.78080022022715 16.68622046327911 -1.642947700858171 0 0 0
9698 1 2 0 29.32104302799401 13.037638570323208 -2.2969157061386127 0 0 0
6879 1 1 0 30.261992057103313 11.880002071335126 -1.6456732981383821 0 0 0
6869 1 1 0 25.49663391313671 14.108506940674005 -1.6467440067294141 0 0 0
9682 1 2 0 27.042818765119616 14.30899350415747 -2.2430869264797093 0 0 0
6880 1 1 0 28.58786843839983 14.356984594543084 -1.6472880263713618 0 0 0
9700 1 2 0 29.620610725706985 15.561504730789311 -2.1795587959256015 0 0 0
13434 1 2 0 25.537215376593448 14.029839860103198 -3.00757807207776e-07 0 0 0
13444 1 2 0 30.27679746918922 12.04173725819013 -8.079759734622754e-08 0 0 0
9699 1 2 0 31.776118384674152 11.88005204973539 -2.30753141358976 0 0 0
9706 1 2 0 34.11289036040135 12.828111050807843 -1.460197387727479 0 0 0
9713 1 2 0 32.391907447034065 14.778210379190243 -2.223302337099581 0 0 0
6888 1 1 0 33.862865062979054 14.459545530315552 -1.5184901139746445 0 0 0
9712 1 2 0 35.26725488212497 14.935220843898705 -2.271322045490125 0 0 0
6970 1 1 0 31.186591426667132 15.792095514860902 -1.6441889175530786 0 0 0
13535 1 2 0 31.11944258582527 15.6914785978427 6.886815886011399e-07 0 0 0
6887 1 1 0 38.22593584171381 11.72220286426898 -1.6448867078779033 0 0 0
9710 1 2 0 37.06936543182401 12.825602552948247 -2.165478265537127 0 0 0
9711 1 2 0 39.630644068780484 12.385688902797591 -2.2221432121654496 0 0 0
6889 1 1 0 36.73018509311996 14.389535975195217 -1.6582987750401172 0 0 0
9714 1 2 0 37.82282909592291 15.518037662919827 -2.222055693834174 0 0 0
6893 1 1 0 40.873166449507266 13.305845722067204 -1.6472984699692872 0 0 0
9721 1 2 0 41.00947560943703 14.827497580943938 -2.2692340285909487 0 0 0
6972 1 1 0 38.37534751730421 16.974594235889608 -1.6385533657024187 0 0 0
6973 1 1 0 41.253405087374595 16.336113555284168 -1.6374986499870496 0 0 0
13454 1 2 0 36.73174583265197 14.391761241260985 -2.913527453193782e-07 0 0 0
13538 1 2 0 41.39236956717837 16.233864169728662 -1.4359447785226543e-07 0 0 0
9720 1 2 0 42.21679870136722 12.577228125011287 -2.2492375400370115 0 0 0
9852 1 2 0 46.98144094676514 12.156276751676865 -2.2462051204870104 0 0 0
9850 1 2 0 42.58793487865778 17.098970674797105 -2.2457227214127 0 0 0
9856 1 2 0 47.29372420807912 16.77327418761036 -2.2592315213870107 0 0 0
6976 1 1 0 48.4270721897509 12.670226402514244 -1.647840033386037 0 0 0
6910 1 1 0 52.40188949462128 12.947953200091897 -1.6216949414922086 0 0 0
9854 1 2 0 48.37667688399227 14.216278484355566 -2.239348768515653 0 0 0
9752 1 2 0 51.056228088021335 13.871679031292288 -1.9321751230582207 0 0 0
6977 1 1 0 48.42419051846317 15.753597648273333 -1.648121804437723 0 0 0
9855 1 2 0 49.887899394102845 16.35184722875896 -2.1849044788489054 0 0 0
6978 1 1 0 51.17904701305991 15.512412488253231 -1.6250497538587776 0 0 0
9857 1 2 0 52.55670071103627 15.86575296070232 -2.4391169507815706 0 0 0
13543 1 2 0 51.30868788531385 15.8139763838651 -1.3514796942689718e-06 0 0 0
13542 1 2 0 48.335594457545426 15.72218208534757 -8.43675847271359e-07 0 0 0
13475 1 2 0 52.58511563531605 12.872467665691467 -7.255761969803113e-07 0 0 0
13541 1 2 0 48.56514908045971 12.718267315428397 -4.6288591994872004e-08 0 0 0
6901 1 1 0 55.25857427696881 12.965710648623277 -1.6337310460551595 0 0 0
9736 1 2 0 53.82734939876502 13.557691819878036 -2.2211935631831823 0 0 0
9735 1 2 0 56.55751152171909 13.873996275122249 -2.1216027553694317 0 0 0
7010 1 1 0 53.85414030187857 16.245997538859434 -1.4945147160116936 0 0 0
9738 1 2 0 55.267960330126975 16.138014462192356 -2.326668622680603 0 0 0
6902 1 1 0 56.61086136418942 15.478813723286855 -1.6432038130979898 0 0 0
9737 1 2 0 57.97906019051478 16.176484759919322 -2.218892191942023 0 0 0
13466 1 2 0 55.30526419685283 12.949966584497254 -1.8323822706644189e-06 0 0 0
13467 1 2 0 56.645920878724056 15.642457554113369 -1.1669384471706384e-06 0 0 0
6900 1 1 0 59.1210736853609 12.418070969226749 -1.6418028126629935 0 0 0
9743 1 2 0 62.95398882855334 12.037732990516039 -2.23918484016618 0 0 0
9733 1 2 0 59.45444219172059 13.99298152794733 -2.166988848459319 0 0 0
6903 1 1 0 59.43627735521894 15.592352869017958 -1.6458930137713281 0 0 0
9739 1 2 0 60.49928790722812 16.754684977048047 -2.2175370352976445 0 0 0
13468 1 2 0 59.59301735857069 15.562815725424363 -8.475712321029909e-07 0 0 0
6913 1 1 0 64.2358394024324 12.908056224709993 -1.639189984230086 0 0 0
9754 1 2 0 65.56881243767386 12.059454296924113 -2.1367265022895046 0 0 0
9757 1 2 0 64.4151581830277 14.469251936457015 -2.2143350637421735 0 0 0
6918 1 1 0 65.39713747030359 15.706236947453135 -1.6500445556874161 0 0 0
9763 1 2 0 66.93346737047348 15.419351026573693 -2.2184385508118694 0 0 0
6917 1 1 0 68.3901559045952 15.944754506116464 -1.6443487783830144 0 0 0
9759 1 2 0 69.3693048962239 12.506111431987241 -2.2072843716602444 0 0 0
13483 1 2 0 65.34014837000221 15.700505935991584 -1.8871393424099153e-06 0 0 0
9761 1 2 0 69.64381664035396 15.059464464048752 -2.2370903272627483 0 0 0
9775 1 2 0 73.89413317609393 11.937803249003247 -2.188002574881327 0 0 0
6916 1 1 0 70.35502097444245 13.70341426994832 -1.6448073039731184 0 0 0
9762 1 2 0 71.88967636111825 13.664388944834613 -2.2449533855394264 0 0 0
6925 1 1 0 73.42388035475766 13.45575343009649 -1.6486207940418665 0 0 0
9776 1 2 0 74.33451216850214 14.759040970581523 -2.1881969920218247 0 0 0
6930 1 1 0 74.88878356495441 16.255352362087738 -1.6480954657637419 0 0 0
13495 1 2 0 74.85853301041699 16.24456561462877 -2.4164900090896577e-06 0 0 0
9779 1 2 0 79.35320745302742 12.468348487065175 -2.14757585828145 0 0 0
9782 1 2 0 78.91763485472306 15.40453243750627 -2.1424883123862752 0 0 0
6929 1 1 0 79.84298423863434 14.05252487247478 -1.647931041008584 0 0 0
9784 1 2 0 76.45249992455625 16.48009569690343 -2.185020119412167 0 0 0
6931 1 1 0 78.0106550922137 16.764812780057103 -1.6461654960139145 0 0 0
6937 1 1 0 84.99711121260361 12.60525680217025 -1.6436768396555794 0 0 0
9783 1 2 0 81.41585750171414 14.393736854551653 -2.162488355735707 0 0 0
6938 1 1 0 82.91971899302169 14.949557835685498 -1.6479338893378181 0 0 0
9796 1 2 0 84.14158495126993 13.931847511325339 -2.2013617949871738 0 0 0
9798 1 2 0 83.24840635721809 16.51735541942129 -2.169408144511672 0 0 0
9797 1 2 0 86.55116650213948 12.356170545434844 -2.218653571648323 0 0 0
6983 1 1 0 88.11197725235607 12.453577095641148 -1.6401662647577753 0 0 0
9864 1 2 0 88.61312146751106 13.910715755160837 -2.183052669799938 0 0 0
6984 1 1 0 89.01889003411432 15.39505045335848 -1.6433554759665434 0 0 0
9865 1 2 0 87.79405628454705 16.36900413781614 -2.2063932089253053 0 0 0
9866 1 2 0 90.56074167391118 15.569288571186947 -2.271532908260178 0 0 0
13552 1 2 0 91.79614323634998 14.82526577076677 -1.7996845937699e-06 0 0 0
13549 1 2 0 89.0650845981582 15.547553558969843 -4.689285203897826e-07 0 0 0
9813 1 2 0 95.86248772135579 13.379007015389343 -2.1912169759508773 0 0 0
6947 1 1 0 96.18883294898764 11.854490096852235 -1.6434360978763751 0 0 0
9817 1 2 0 93.23783680281169 14.48935103952359 -2.245192174699918 0 0 0
6949 1 1 0 94.80641665540647 14.531943677358555 -1.6461969474554032 0 0 0
9816 1 2 0 95.5913162202009 15.891145952329985 -2.151213220835678 0 0 0
6987 1 1 0 92.04275047320021 15.429709793409373 -1.5275653663092295 0 0 0
6950 1 1 0 97.03741292839184 16.53393626143699 -1.6408769877322664 0 0 0
9870 1 2 0 92.69645438960316 16.93036025686749 -1.5041447152199772 0 0 0
13514 1 2 0 94.70490961173465 14.457777023973746 -1.8606217233492522e-07 0 0 0
13515 1 2 0 97.19631816279002 16.50653053318688 -5.46168197726837e-07 0 0 0
9811 1 2 0 99.56983185739959 13.103431549064302 -2.1685402532080125 0 0 0
9815 1 2 0 98.39519906072752 15.706277676897425 -2.212170724453404 0 0 0
6948 1 1 0 99.63434024274196 14.69828832875176 -1.6489139708266862 0 0 0
9446 1 2 0 101.10618238098347 15.262347335825735 -2.1986929729232854 0 0 0
6713 1 1 0 102.53878720543744 15.90784673456599 -1.647742519730266 0 0 0
13513 1 2 0 99.58751286855639 14.723047072530163 -6.271041697410477e-07 0 0 0
9435 1 2 0 11.03607655419513 17.197464515076202 -2.2947262169152807 0 0 0
6765 1 1 0 12.011699862415378 18.34766170574595 -1.6469916434649297 0 0 0
9523 1 2 0 11.479912381673685 19.782782765370968 -2.24082014954728 0 0 0
9524 1 2 0 13.504608403056736 18.04075338445651 -2.2426367060773704 0 0 0
6767 1 1 0 10.656027086719273 21.072283952287368 -1.64762066950856 0 0 0
9525 1 2 0 9.124524151727481 21.112562720797342 -2.2472323462223955 0 0 0
9527 1 2 0 11.437908903839068 22.37166054549539 -2.2750392142663203 0 0 0
13332 1 2 0 10.629846747103487 21.065098720119575 -4.037252374691639e-07 0 0 0
6768 1 1 0 14.97924054265016 17.61610057979315 -1.6489403263496285 0 0 0
6816 1 1 0 16.979380814756258 19.95940697724977 -1.6466764174922235 0 0 0
9529 1 2 0 15.951121916467033 18.81091713063186 -2.24612378295784 0 0 0
9601 1 2 0 18.441459541225083 19.48519700884332 -2.2356517015772055 0 0 0
9600 1 2 0 16.688595222822066 21.50223812936074 -2.2054235511844706 0 0 0
9685 1 2 0 24.620732339756913 18.06323678083515 -2.1939886762231104 0 0 0
6967 1 1 0 19.75485386429889 18.692973301728383 -1.6445089274835833 0 0 0
9842 1 2 0 21.02296051799098 19.612855751367 -2.186268078566445 0 0 0
7041 1 1 0 21.515216309388414 21.099941178146796 -1.6459971938491242 0 0 0
9952 1 2 0 20.73700566991328 22.425943590045193 -2.2433246514112875 0 0 0
7043 1 1 0 24.39658664248848 21.852591546084465 -1.6442715387525886 0 0 0
9953 1 2 0 23.02130350483597 21.21619557459595 -2.2658111443271687 0 0 0
13606 1 2 0 21.45486251810956 21.12604333358211 -8.479498856389959e-09 0 0 0
13608 1 2 0 24.379198085612217 21.939959447019483 -6.331774378277806e-07 0 0 0
6998 1 1 0 25.781531472118637 19.16634049200136 -1.644085368144461 0 0 0
9887 1 2 0 27.379134469553502 19.031966259527707 -2.180620841084923 0 0 0
6999 1 1 0 28.692532133529348 19.926556127485775 -1.6476535909634589 0 0 0
9885 1 2 0 30.104837438147385 19.283341948512827 -2.2326403573882247 0 0 0
9888 1 2 0 25.514219672986034 20.738165278036796 -2.1372311300299858 0 0 0
9889 1 2 0 28.77253575735465 21.51844016153362 -2.1739419298698643 0 0 0
7046 1 1 0 29.86455725093927 22.663351048973883 -1.6495132442696967 0 0 0
13611 1 2 0 29.86742598754241 22.6381654152775 -4.3576809004460793e-07 0 0 0
13563 1 2 0 25.75841436773541 19.028711110332328 7.088482150970044e-07 0 0 0
9846 1 2 0 31.710634989353725 17.239171144982837 -2.1975950179708734 0 0 0
6997 1 1 0 31.56307340411192 18.777577250830955 -1.644564092591075 0 0 0
9886 1 2 0 32.909300576120785 19.518668414156043 -2.2641307276528995 0 0 0
7002 1 1 0 34.19121958134591 20.357121433227924 -1.6309756295404407 0 0 0
9893 1 2 0 35.65726368599293 19.951795097021254 -2.263108521097998 0 0 0
9959 1 2 0 31.405845453260408 22.41889393429967 -2.2259145222641017 0 0 0
9894 1 2 0 34.024496314590294 21.935541623925797 -2.0690426874906995 0 0 0
13562 1 2 0 31.569417371974296 18.89052509073227 3.8225965068228476e-07 0 0 0
9848 1 2 0 39.941460707747375 17.219075282265607 -2.1077446559334234 0 0 0
9849 1 2 0 37.600303742521405 18.294433160757983 -2.2482688287036376 0 0 0
7003 1 1 0 37.18745717980647 19.78270052590662 -1.653119252778054 0 0 0
9895 1 2 0 38.18953201408453 20.99888018827496 -2.212502520263515 0 0 0
7050 1 1 0 39.50310457091828 21.848957619466923 -1.642121221963999 0 0 0
9965 1 2 0 40.86975644046616 21.08302781196503 -2.1691652894727897 0 0 0
13615 1 2 0 39.41109076653 21.899350026466298 -2.8892152205423365e-07 0 0 0
7006 1 1 0 43.552689415021646 18.310339632852614 -1.6495526506690994 0 0 0
9900 1 2 0 43.12260354762915 19.79220146411874 -2.2348946718159484 0 0 0
9899 1 2 0 45.06078961680178 18.04694174402811 -2.2458261867759757 0 0 0
7007 1 1 0 46.587615314077844 18.146897529601933 -1.6487114299539465 0 0 0
7051 1 1 0 42.434515160954504 21.165254211328524 -1.6443980544461934 0 0 0
9967 1 2 0 43.21209558555056 22.505150690909094 -2.2404030338880085 0 0 0
9901 1 2 0 47.300166886741074 19.538298390159948 -2.197756895728693 0 0 0
13616 1 2 0 42.496827678993476 21.205916896590196 -5.825179295505394e-07 0 0 0
7055 1 1 0 48.46548654449379 20.59149507371008 -1.6503749638909666 0 0 0
9974 1 2 0 48.124155837084864 22.140844967717843 -2.2031194873864335 0 0 0
9973 1 2 0 49.898817949960886 19.91523019718719 -2.1935276205130747 0 0 0
7056 1 1 0 51.40968039396773 20.378889467765894 -1.6365186172842625 0 0 0
9975 1 2 0 51.36257867501879 21.956922604166714 -2.164903960621452 0 0 0
9971 1 2 0 52.85269921141761 19.907874831822266 -2.335630821998301 0 0 0
9905 1 2 0 53.46484439906492 17.792190012853137 -1.2180122623675196 0 0 0
7054 1 1 0 54.13129604562376 19.242257472943404 -1.484512351883506 0 0 0
9972 1 2 0 55.73191917796821 18.886578172341896 -2.0106147842282085 0 0 0
9977 1 2 0 55.52111040693977 21.261892088159815 -2.1925179335265663 0 0 0
7057 1 1 0 56.68920722737425 20.211127086163593 -1.6215321519961035 0 0 0
13619 1 2 0 54.234898780438215 20.0285824296746 -2.232941824135222e-06 0 0 0
9976 1 2 0 58.13704233442728 20.653637051998846 -2.293499617970751 0 0 0
7012 1 1 0 61.12723812119567 18.20988510250971 -1.6452605280839714 0 0 0
9908 1 2 0 60.48457250838352 19.654515359400907 -2.1624515797352437 0 0 0
9906 1 2 0 62.66252627171761 18.286158754500285 -2.2326802768217333 0 0 0
7058 1 1 0 59.65052588455249 21.00518153020667 -1.6500462728505427 0 0 0
9978 1 2 0 60.296623388126754 22.475765658780958 -2.1912184213703214 0 0 0
13623 1 2 0 59.656109335313296 21.09924416215997 -9.482700161368603e-08 0 0 0
9765 1 2 0 65.01584610994993 17.228832499152112 -2.199284456716873 0 0 0
9764 1 2 0 68.7157357680477 17.465437057419617 -2.191890639224325 0 0 0
7011 1 1 0 64.1779799925172 18.558559528010182 -1.646626650345631 0 0 0
9907 1 2 0 64.72122796444992 20.035779715723322 -2.207227396878539 0 0 0
9862 1 2 0 69.39605144878718 19.948914121937438 -2.269952753021247 0 0 0
7013 1 1 0 65.51438030035023 21.400897851449905 -1.6473377176565982 0 0 0
9909 1 2 0 67.05514787731121 21.28042097295211 -2.2355711790895967 0 0 0
7014 1 1 0 68.59055626421215 21.23772476752763 -1.6466643524666233 0 0 0
9911 1 2 0 69.42945187414244 22.520123523398073 -2.2245216316462075 0 0 0
13578 1 2 0 65.46393997459138 21.391773063042596 -6.639072367562124e-07 0 0 0
13576 1 2 0 64.21373909263231 18.600533385725402 -2.458815011539655e-06 0 0 0
9785 1 2 0 73.98126986176784 17.553137456813783 -2.2069560007013487 0 0 0
6981 1 1 0 69.87036477750907 18.508378387107772 -1.6452650538584581 0 0 0
9861 1 2 0 71.39261202456771 18.130293830195267 -2.1789688723171268 0 0 0
6982 1 1 0 72.87211145990686 18.67593033735241 -1.6442893398718366 0 0 0
9863 1 2 0 73.01740788251661 20.25357383928312 -2.1855071835326823 0 0 0
7019 1 1 0 73.27483289975251 21.826463522720438 -1.647249491375746 0 0 0
9918 1 2 0 74.85459072399624 22.122165106757002 -2.163096261399523 0 0 0
13547 1 2 0 72.98445669101544 18.695798563364672 -1.6220014057167163e-06 0 0 0
13584 1 2 0 73.25548313533213 21.861488587884548 -4.3200926418708056e-07 0 0 0
9786 1 2 0 78.44412120576571 18.349678137426526 -2.1428811117424877 0 0 0
7018 1 1 0 78.7592045147168 19.961181226926914 -1.6486474847015797 0 0 0
9917 1 2 0 80.34776376996136 20.356143912394515 -2.1370795666067615 0 0 0
7020 1 1 0 76.4452452093005 22.34497205365161 -1.6473423380580832 0 0 0
9916 1 2 0 77.59639901042354 21.15106778413437 -2.1406026230497357 0 0 0
13583 1 2 0 78.72199888942893 19.975888848420745 -9.072140129094572e-07 0 0 0
13585 1 2 0 76.49307472542289 22.300867948413615 -4.1772452561152683e-07 0 0 0
6985 1 1 0 83.91735059499574 17.975325618759346 -1.6489870828766382 0 0 0
9868 1 2 0 82.97767704785574 19.29806608951338 -2.1578316114663334 0 0 0
9867 1 2 0 85.52770154743548 18.032473964398854 -2.1921813115379147 0 0 0
7021 1 1 0 81.96438356395349 20.57548017526835 -1.6483553349104003 0 0 0
9921 1 2 0 82.55418373618056 22.09372897701744 -2.1625240083415322 0 0 0
13550 1 2 0 83.93351869185165 18.00358693954462 -3.348786832194671e-07 0 0 0
13586 1 2 0 81.98926098418758 20.575427482648244 -2.7628987122997607e-07 0 0 0
6986 1 1 0 87.1011483239835 17.783187849510067 -1.645595437584752 0 0 0
9869 1 2 0 88.20603574521542 18.911284993122965 -2.183958701589557 0 0 0
7059 1 1 0 89.63460402492639 19.586240518816954 -1.6497178679225584 0 0 0
9938 1 2 0 91.08043124605541 18.973733903030986 -2.2389377372224315 0 0 0
7061 1 1 0 89.10038887761634 22.56694792422735 -1.6450838395150802 0 0 0
9979 1 2 0 89.55088197928292 21.114165417453904 -2.25628048072773 0 0 0
13551 1 2 0 87.01754781330074 17.778846045810376 -6.670659486955037e-07 0 0 0
9818 1 2 0 96.7546180623168 18.109370992818977 -2.1599984513700456 0 0 0
7032 1 1 0 92.54195910683829 18.562259830801157 -1.5280542637389651 0 0 0
6988 1 1 0 95.51523411871688 19.13869383147176 -1.6504234539796294 0 0 0
9872 1 2 0 93.96302787945912 19.0124567569323 -2.2760554769240455 0 0 0
9871 1 2 0 95.9261864220929 20.666460241487744 -2.1429628749924814 0 0 0
6989 1 1 0 97.12381459648054 21.67905049279847 -1.640166689779094 0 0 0
13553 1 2 0 95.43937474210838 19.022453492405717 -8.356361511508142e-07 0 0 0
9444 1 2 0 102.63407084758494 17.468424647248202 -2.224865378607812 0 0 0
6712 1 1 0 102.35802744182367 18.99834601445402 -1.6488447694372461 0 0 0
9445 1 2 0 100.86922854189856 19.51814650014894 -2.197849601236679 0 0 0
6771 1 1 0 100.05795906901068 20.86039796406263 -1.6475270913253566 0 0 0
9534 1 2 0 98.52384206595173 21.010358028953046 -2.2365291778877388 0 0 0
9533 1 2 0 100.86710829998813 22.1724656466555 -2.270283539878957 0 0 0
13277 1 2 0 102.39615409241675 18.968269651557137 -2.635028563186419e-08 0 0 0
9593 1 2 0 11.143033943795205 25.03142766447952 -2.2925885138960687 0 0 0
6812 1 1 0 11.982359072287869 23.77795366939171 -1.644355383542743 0 0 0
9594 1 2 0 13.514695007115844 23.972574473361945 -2.1815095152757094 0 0 0
6814 1 1 0 10.029162593941178 26.03393895260555 -1.638377267247891 0 0 0
9595 1 2 0 8.573978809689853 25.43335370385492 -2.1114282628273275 0 0 0
9597 1 2 0 10.262929032727438 27.54694732592959 -2.238903465565533 0 0 0
13377 1 2 0 11.89641258769204 23.75456330616199 -4.5262084632426675e-07 0 0 0
6817 1 1 0 17.04260818563378 23.038001494799122 -1.6480051296458282 0 0 0
6815 1 1 0 14.71194146293434 24.965642564218726 -1.6430869873044658 0 0 0
9598 1 2 0 16.033460818082748 24.196494470725597 -2.2491551077726837 0 0 0
9602 1 2 0 18.473795419144903 23.625060826846646 -2.209970812438666 0 0 0
9599 1 2 0 14.540077950975665 26.504204098072453 -2.2293621431664645 0 0 0
6857 1 1 0 14.20159345041713 28.027872013743107 -1.6490352472237622 0 0 0
7042 1 1 0 20.007632683343708 23.779997936130474 -1.6451471348421076 0 0 0
9954 1 2 0 20.66759899106595 25.182662960895435 -2.2408825077492547 0 0 0
9955 1 2 0 24.55731939736035 23.3914706069801 -2.2508446091063714 0 0 0
7118 1 1 0 21.146970917633983 26.65888131506197 -1.6463048847608437 0 0 0
10068 1 2 0 22.638058952093964 27.053880091977515 -2.2162875344486617 0 0 0
9993 1 2 0 25.061842473432428 26.20397287600591 -2.2312639970473818 0 0 0
7119 1 1 0 24.133966432433866 27.45003065043965 -1.6474517382424743 0 0 0
10069 1 2 0 20.20864530828588 27.87420922575425 -2.2459418292012003 0 0 0
13684 1 2 0 24.156150935913296 27.495451381545337 -1.688645867040016e-07 0 0 0
7068 1 1 0 25.390055469232898 24.690072324362458 -1.6374442999662162 0 0 0
9992 1 2 0 26.927624341911734 24.379144493755927 -2.129438020279878 0 0 0
9960 1 2 0 29.499042698333128 24.173638979668254 -2.2255791105111986 0 0 0
7069 1 1 0 28.296644960578796 25.13744466978244 -1.6394726152348438 0 0 0
9994 1 2 0 28.321458276587403 26.686356084604206 -2.2293906634322678 0 0 0