ITEM: TIMESTEP
1853
ITEM: NUMBER OF ATOMS
15612
ITEM: BOX BOUNDS pp pp pp
0.0000000000000000e+00 2.0476155108026319e+02
0.0000000000000000e+00 1.7747386149347949e+02
-1.0000000000000000e+02 1.0000000000000000e+02
ITEM: ATOMS id type element x y z v_uncoordination
1 1 Si 116.413 36.1102 1.61643 0
2 1 Si 116.098 32.9881 1.61999 0
3 1 Si 113.257 36.8834 1.63603 0
4 1 Si 113.059 31.985 1.61872 0
5 1 Si 111.022 34.4595 1.61798 0
6 1 Si 119.373 37.4753 1.63102 0
7 1 Si 118.744 31.3228 1.61946 0
8 1 Si 121.747 32.3996 1.64121 0
9 1 Si 122.237 35.6122 1.65345 0
10 1 Si 113.039 40.0261 1.60428 0
11 1 Si 118.535 40.683 1.62781 0
12 1 Si 115.531 41.9977 1.60693 0
13 1 Si 107.69 5.14069 1.63391 0
14 1 Si 104.618 4.80227 1.63182 0
15 1 Si 107.705 8.32332 1.61712 0
16 1 Si 105.084 10.1315 1.6269 0
17 1 Si 103.324 7.61729 1.63924 0
18 1 Si 109.296 2.40161 1.63883 0
19 1 Si 102.518 2.51119 1.63548 0
20 1 Si 103.943 177.163 1.62019 0
21 1 Si 107.155 177.372 1.6167 0
22 1 Si 115.36 6.98979 1.64737 0
23 1 Si 112.541 8.50281 1.58459 0
24 1 Si 115.542 3.87659 1.62441 0
25 1 Si 112.612 2.21671 1.60763 0
26 1 Si 109.963 10.4324 1.63099 0
27 1 Si 117.572 9.23658 1.59755 0
28 1 Si 114.801 10.6275 1.60791 0
29 1 Si 118.81 3.12577 1.6048 0
30 1 Si 119.079 177.343 1.6169 0
31 1 Si 116.391 175.462 1.63052 0
32 1 Si 113.401 176.586 1.62387 0
33 1 Si 121.966 4.15865 1.61821 0
34 1 Si 124.006 1.63166 1.60779 0
35 1 Si 122.255 176.389 1.63061 0
36 1 Si 123.935 6.7422 1.6327 0
37 1 Si 123.104 9.89149 1.61334 0
38 1 Si 120.092 11.1403 1.63415 0
39 1 Si 127.078 5.7848 1.61753 0
40 1 Si 127.153 2.52695 1.6328 0
41 1 Si 133.024 1.91771 1.61589 0
42 1 Si 129.918 0.728071 1.62379 0
43 1 Si 134.438 4.85575 1.65599 0
44 1 Si 132.737 7.61323 1.6148 0
45 1 Si 129.502 7.92477 1.62076 0
46 1 Si 135.289 177.054 1.61341 0
47 1 Si 133.448 174.381 1.61844 0
48 1 Si 130.058 174.893 1.62724 0
49 1 Si 137.672 5.11616 1.61969 0
50 1 Si 139.248 7.9161 1.62493 0
51 1 Si 137.407 10.6681 1.63256 0
52 1 Si 134.077 10.5914 1.61268 0
53 1 Si 139.904 2.78957 1.61612 0
54 1 Si 138.636 177.336 1.63346 0
55 1 Si 142.411 7.14004 1.62211 0
56 1 Si 142.889 3.94857 1.62889 0
57 1 Si 147.513 5.83863 1.61594 0
58 1 Si 150.724 5.58646 1.628 0
59 1 Si 145.41 8.36045 1.63135 0
60 1 Si 152.963 8.02458 1.62183 0
61 1 Si 152.765 11.3832 1.64932 0
62 1 Si 145.933 11.5742 1.63419 0
63 1 Si 149.435 12.6305 1.63598 0
64 1 Si 145.956 2.96608 1.61462 0
65 1 Si 151.85 2.45372 1.62595 0
66 1 Si 150.498 176.786 1.6369 0
67 1 Si 147.099 177.302 1.62623 0
68 1 Si 155.744 6.29999 1.61693 0
69 1 Si 155.027 3.04623 1.62814 0
70 1 Si 158.69 7.81272 1.63765 0
71 1 Si 158.928 11.4035 1.62926 0
72 1 Si 155.882 13.1681 1.63428 0
73 1 Si 160.704 5.04714 1.63204 0
74 1 Si 159.797 1.73548 1.63223 0
75 1 Si 156.834 0.29546 1.63079 0
76 1 Si 164.004 5.19596 1.63304 0
77 1 Si 164.498 1.63875 1.60923 0
78 1 Si 170.306 4.82744 1.63158 0
79 1 Si 169.22 7.99781 1.6238 0
80 1 Si 169.546 1.63014 1.62286 0
81 1 Si 165.869 8.48402 1.62598 0
82 1 Si 167.055 176.989 1.63 0
83 1 Si 162.023 176.818 1.62228 0
84 1 Si 173.452 4.23923 1.62627 0
85 1 Si 175.485 6.52861 1.62373 0
86 1 Si 171.526 10.532 1.63408 0
87 1 Si 174.608 9.56182 1.61564 0
88 1 Si 174.729 1.35774 1.61464 0
89 1 Si 172.1 177.187 1.61296 0
90 1 Si 178.393 5.3997 1.62736 0
91 1 Si 179.46 2.47479 1.63349 0
92 1 Si 177.587 0.00665636 1.62772 0
93 1 Si 183.878 4.83699 1.62094 0
94 1 Si 182.494 2.08638 1.6269 0
95 1 Si 182.887 7.70889 1.63752 0
96 1 Si 179.87 8.06557 1.62934 0
97 1 Si 186.948 4.69733 1.61126 0
98 1 Si 187.31 1.59583 1.62476 0
99 1 Si 184.643 177.335 1.62965 0
100 1 Si 187.833 7.75015 1.63473 0
101 1 Si 185.225 9.74546 1.60487 0
102 1 Si 191.052 7.36159 1.63187 0
103 1 Si 192.041 3.78188 1.62738 0
104 1 Si 190.325 0.695472 1.61576 0
105 1 Si 197.258 5.59131 1.5915 0
106 1 Si 195.25 2.95335 1.63911 0
107 1 Si 197.973 8.74724 1.63521 0
108 1 Si 192.471 10.5705 1.61599 0
109 1 Si 195.833 11.1686 1.60894 0
110 1 Si 200.453 5.47022 1.60876 0
111 1 Si 201.82 2.59074 1.62867 0
112 1 Si 199.825 177.376 1.64135 0
113 1 Si 196.564 177.276 1.63344 0
114 1 Si 201.24 8.59098 1.62324 0
115 1 Si 0.370984 2.49672 1.62603 0
116 1 Si 0.91824 176.679 1.64284 0
117 1 Si 200.782 174.266 1.62992 0
118 1 Si 203.857 173.93 1.63944 0
119 1 Si 2.85861 4.9043 1.6337 0
120 1 Si 2.49337 8.41087 1.6328 0
121 1 Si 204.178 10.2822 1.63666 0
122 1 Si 6.0101 3.48319 1.63785 0
123 1 Si 6.37753 0.148463 1.64494 0
124 1 Si 3.85305 175.48 1.63799 0
125 1 Si 108.821 13.5469 1.63515 0
126 1 Si 114.008 13.6188 1.59744 0
127 1 Si 111.37 15.3334 1.62723 0
128 1 Si 128.697 11.0672 1.61377 0
129 1 Si 125.581 12.0285 1.62588 0
130 1 Si 142.634 13.0708 1.60565 0
131 1 Si 139.083 13.4508 1.63103 0
132 1 Si 143.529 16.0976 1.62827 0
133 1 Si 149.448 15.874 1.61666 0
134 1 Si 146.528 17.0265 1.62092 0
135 1 Si 165.163 12.1071 1.62769 0
136 1 Si 161.876 13.4768 1.63224 0
137 1 Si 171.247 13.8943 1.64123 0
138 1 Si 167.809 14.549 1.62574 0
139 1 Si 177.669 10.2718 1.63327 0
140 1 Si 5.53455 10.073 1.63684 0
141 1 Si 8.95949 5.16534 1.64753 0
142 1 Si 8.68362 8.50066 1.64985 0
143 1 Si 103.879 13.044 1.62743 0
144 1 Si 106.061 15.3554 1.61829 0
145 1 Si 116.338 15.7378 1.61786 0
146 1 Si 119.224 14.3108 1.63429 0
147 1 Si 131.519 12.7092 1.63216 0
148 1 Si 141.367 18.3643 1.61868 0
149 1 Si 136.963 16.1401 1.61452 0
150 1 Si 138.288 18.9885 1.62643 0
151 1 Si 156.153 16.677 1.61465 0
152 1 Si 151.063 18.7067 1.63931 0
153 1 Si 154.152 19.3297 1.62332 0
154 1 Si 161.599 17.013 1.63001 0
155 1 Si 158.759 18.7874 1.62395 0
156 1 Si 179.634 12.6529 1.63083 0
157 1 Si 177.691 15.243 1.61602 0
158 1 Si 174.351 16.1095 1.63338 0
159 1 Si 182.863 12.0143 1.62851 0
160 1 Si 191.064 13.6533 1.62392 0
161 1 Si 184.203 14.8321 1.62442 0
162 1 Si 187.688 14.9574 1.61515 0
163 1 Si 197.194 14.268 1.62034 0
164 1 Si 194 15.429 1.61776 0
165 1 Si 203.876 13.7976 1.62284 0
166 1 Si 200.716 15.8478 1.63458 0
167 1 Si 2.28836 15.2528 1.63344 0
168 1 Si 5.33988 13.4661 1.64638 0
169 1 Si 100.685 13.3714 1.64401 0
170 1 Si 100.271 7.55669 1.6328 0
171 1 Si 99.1036 10.5226 1.63656 0
172 1 Si 114.992 18.681 1.63184 0
173 1 Si 111.761 18.4976 1.61314 0
174 1 Si 124.609 15.0799 1.61678 0
175 1 Si 121.645 16.3089 1.61895 0
176 1 Si 131.475 15.9607 1.62755 0
177 1 Si 126.245 17.7556 1.63109 0
178 1 Si 129.274 18.3197 1.62339 0
179 1 Si 146.742 20.0977 1.6292 0
180 1 Si 141.772 21.4325 1.61566 0
181 1 Si 144.631 22.3358 1.61424 0
182 1 Si 149.479 21.5192 1.59798 0
183 1 Si 167.166 17.8828 1.63589 0
184 1 Si 164.101 19.2186 1.63346 0
185 1 Si 180.984 16.1412 1.63042 0
186 1 Si 121.549 19.4776 1.63237 0
187 1 Si 116.464 21.5753 1.64012 0
188 1 Si 119.679 22.0196 1.63628 0
189 1 Si 134.092 17.7513 1.62366 0
190 1 Si 136.917 21.9252 1.64074 0
191 1 Si 139.519 23.5445 1.63207 0
192 1 Si 158.208 22.2834 1.61064 0
193 1 Si 154.976 22.5785 1.61835 0
194 1 Si 169.208 20.4983 1.62526 0
195 1 Si 174.959 19.5245 1.62381 0
196 1 Si 172.381 21.5959 1.63999 0
197 1 Si 187.297 18.1647 1.62071 0
198 1 Si 181.019 19.2786 1.61424 0
199 1 Si 184.349 19.6871 1.63303 0
200 1 Si 193.414 18.5812 1.63704 0
201 1 Si 190.267 19.352 1.62367 0
202 1 Si 201.153 19.4979 1.62761 0
203 1 Si 195.337 21.1963 1.62997 0
204 1 Si 198.564 21.9248 1.64493 0
205 1 Si 2.37967 18.6523 1.63004 0
206 1 Si 204.403 20.8021 1.63852 0
207 1 Si 104.951 18.4429 1.62685 0
208 1 Si 101.756 18.9513 1.59574 0
209 1 Si 99.4089 16.409 1.64866 0
210 1 Si 109.815 21.0768 1.65389 0
211 1 Si 106.631 21.2524 1.62802 0
212 1 Si 124.526 20.3697 1.62146 0
213 1 Si 132.897 20.7946 1.62625 0
214 1 Si 129.815 21.5144 1.61379 0
215 1 Si 134.154 23.6885 1.61242 0
216 1 Si 145.399 25.3372 1.61205 0
217 1 Si 148.51 24.593 1.64209 0
218 1 Si 164.052 22.6177 1.6141 0
219 1 Si 159.446 25.5997 1.62429 0
220 1 Si 162.649 25.8017 1.63032 0
221 1 Si 167.206 23.036 1.6135 0
222 1 Si 178.126 21.0631 1.6287 0
223 1 Si 184.599 22.7978 1.6185 0
224 1 Si 179.073 24.3346 1.63627 0
225 1 Si 182.249 24.8974 1.61242 0
226 1 Si 5.52939 19.8577 1.62909 0
227 1 Si 8.46434 14.8684 1.63843 0
228 1 Si 8.4072 18.1917 1.62424 0
229 1 Si 111.224 23.9417 1.61419 0
230 1 Si 114.427 24.0732 1.62004 0
231 1 Si 125.028 23.4394 1.62428 0
232 1 Si 121.966 24.3651 1.62961 0
233 1 Si 128.069 24.2925 1.64623 0
234 1 Si 139.9 26.6116 1.63669 0
235 1 Si 143.017 27.4397 1.63788 0
236 1 Si 153.685 25.6799 1.62566 0
237 1 Si 150.639 26.8769 1.61581 0
238 1 Si 155.028 28.6225 1.62319 0
239 1 Si 158.228 28.9153 1.63453 0
240 1 Si 167.818 26.13 1.62224 0
241 1 Si 173.161 24.9025 1.60389 0
242 1 Si 170.785 26.9319 1.6127 0
243 1 Si 190.104 22.4512 1.63504 0
244 1 Si 187.462 24.0724 1.61927 0
245 1 Si 193.047 23.4513 1.62504 0
246 1 Si 0.341011 24.199 1.63878 0
247 1 Si 198.572 25.3334 1.62042 0
248 1 Si 200.691 27.8522 1.63821 0
249 1 Si 203.935 27.3702 1.63109 0
250 1 Si 3.40687 25.0291 1.6097 0
251 1 Si 5.84149 23.0439 1.62053 0
252 1 Si 105.406 24.3173 1.59412 0
253 1 Si 102.888 22.1295 1.57476 0
254 1 Si 106.814 27.5099 1.64772 0
255 1 Si 110.017 26.9382 1.62801 0
256 1 Si 115.355 27.0964 1.63256 0
257 1 Si 121.531 27.4964 1.62977 0
258 1 Si 118.376 28.1851 1.60649 0
259 1 Si 132.334 26.5231 1.62656 0
260 1 Si 137.256 28.3571 1.61262 0
261 1 Si 134.133 29.1036 1.63808 0
262 1 Si 149.812 30.0435 1.62631 0
263 1 Si 143.92 30.4543 1.61348 0
264 1 Si 146.899 31.6518 1.61914 0
265 1 Si 163.442 29.2568 1.62432 0
266 1 Si 166.554 29.0935 1.62685 0
267 1 Si 174.767 27.8978 1.64012 0
268 1 Si 177.921 27.4914 1.62588 0
269 1 Si 187.294 27.1914 1.60944 0
270 1 Si 184.112 27.5218 1.62951 0
271 1 Si 192.844 26.5828 1.63602 0
272 1 Si 190.198 28.4764 1.6443 0
273 1 Si 195.925 27.2496 1.62354 0
274 1 Si 105.859 30.8927 1.63082 0
275 1 Si 102.515 31.3186 1.59299 0
276 1 Si 100.301 23.6951 1.59977 0
277 1 Si 99.8639 26.7453 1.57149 0
278 1 Si 99.5556 29.7892 1.64944 0
279 1 Si 112.623 28.8452 1.62093 0
280 1 Si 129.097 27.4116 1.62425 0
281 1 Si 123.786 29.8923 1.62907 0
282 1 Si 127.097 30.2649 1.65269 0
283 1 Si 152.876 31.0809 1.62606 0
284 1 Si 170.823 30.0782 1.6317 0
285 1 Si 173.707 31.1431 1.63882 0
286 1 Si 201.058 43.5217 1.63444 0
287 1 Si 200.368 40.3974 1.63714 0
288 1 Si 198.882 45.8065 1.62365 0
289 1 Si 197.378 39.4618 1.63445 0
290 1 Si 195.139 41.817 1.63946 0
291 1 Si 195.832 44.9417 1.62959 0
292 1 Si 204.065 44.4768 1.63827 0
293 1 Si 202.459 38.0371 1.62227 0
294 1 Si 0.547844 39.042 1.60795 0
295 1 Si 1.22194 42.0569 1.61192 0
296 1 Si 0.277427 47.4951 1.62104 0
297 1 Si 199.425 48.9647 1.61501 0
298 1 Si 202.667 49.8473 1.63264 0
299 1 Si 182.813 30.3527 1.61709 0
300 1 Si 179.582 30.3875 1.61495 0
301 1 Si 195.966 30.4075 1.62178 0
302 1 Si 199.141 30.7774 1.60485 0
303 1 Si 5.21996 27.5859 1.60888 0
304 1 Si 1.17541 30.0934 1.61813 0
305 1 Si 4.46728 30.5894 1.62857 0
306 1 Si 138.403 31.2117 1.63555 0
307 1 Si 133.236 32.2219 1.62878 0
308 1 Si 136.15 33.3319 1.63395 0
309 1 Si 141.311 32.2154 1.62434 0
310 1 Si 159.205 32.2834 1.63939 0
311 1 Si 153.736 34.1857 1.63197 0
312 1 Si 157.001 34.9631 1.62677 0
313 1 Si 162.533 32.6753 1.62578 0
314 1 Si 168.251 31.8395 1.61328 0
315 1 Si 12.0659 3.65664 1.65165 0
316 1 Si 12.1948 0.336106 1.64635 0
317 1 Si 9.32994 176.152 1.64308 0
318 1 Si 190.344 31.6674 1.62144 0
319 1 Si 184.663 32.9794 1.61773 0
320 1 Si 187.818 33.7583 1.64127 0
321 1 Si 15.1303 5.17013 1.64707 0
322 1 Si 14.9869 8.49696 1.65182 0
323 1 Si 11.7927 9.95486 1.65199 0
324 1 Si 18.2092 3.60239 1.64745 0
325 1 Si 18.0477 0.234161 1.63452 0
326 1 Si 15.0816 176.15 1.63418 0
327 1 Si 193.48 32.4804 1.63424 0
328 1 Si 21.3275 5.17727 1.6403 0
329 1 Si 21.3577 8.63612 1.6277 0
330 1 Si 18.1078 9.99972 1.64086 0
331 1 Si 24.1958 3.20616 1.61255 0
332 1 Si 23.8117 177.388 1.63102 0
333 1 Si 20.8615 175.869 1.62707 0
334 1 Si 27.5948 3.41139 1.62744 0
335 1 Si 29.3481 6.17231 1.62782 0
336 1 Si 27.6181 9.19178 1.63368 0
337 1 Si 24.3798 10.5861 1.63117 0
338 1 Si 29.1951 0.517938 1.60753 0
339 1 Si 26.7334 175.898 1.61043 0
340 1 Si 32.7976 5.84026 1.60956 0
341 1 Si 32.7352 8.97714 1.61138 0
342 1 Si 30.2972 10.9655 1.61322 0
343 1 Si 36.0694 4.74582 1.62808 0
344 1 Si 37.389 1.76799 1.63017 0
345 1 Si 32.027 176.354 1.62732 0
346 1 Si 35.2771 176.741 1.61955 0
347 1 Si 38.9225 6.47343 1.62567 0
348 1 Si 38.2669 9.49208 1.62405 0
349 1 Si 35.372 10.5328 1.63063 0
350 1 Si 43.4461 3.26726 1.62543 0
351 1 Si 42.1904 6.23019 1.64099 0
352 1 Si 40.7594 1.32381 1.6311 0
353 1 Si 7.61721 25.6338 1.62706 0
354 1 Si 46.7973 2.50268 1.63391 0
355 1 Si 48.8098 5.26269 1.61484 0
356 1 Si 47.4542 8.29288 1.61476 0
357 1 Si 44.2698 8.7533 1.62894 0
358 1 Si 47.8663 176.674 1.6376 0
359 1 Si 45.1567 174.862 1.61863 0
360 1 Si 42.0676 175.874 1.62689 0
361 1 Si 107.728 33.9215 1.64132 0
362 1 Si 52.0699 6.03011 1.62524 0
363 1 Si 49.3361 11.0187 1.61528 0
364 1 Si 52.3231 9.48824 1.62566 0
365 1 Si 54.5931 3.74358 1.62801 0
366 1 Si 54.9449 0.383444 1.61178 0
367 1 Si 54.0346 174.696 1.6279 0
368 1 Si 50.6965 174.571 1.61862 0
369 1 Si 57.7314 4.72733 1.62369 0
370 1 Si 59.5702 2.15347 1.63186 0
371 1 Si 57.9836 176.921 1.62411 0
372 1 Si 127.837 33.6313 1.62105 0
373 1 Si 125.563 36.1833 1.62741 0
374 1 Si 65.6669 5.01269 1.62168 0
375 1 Si 63.0257 7.33787 1.62909 0
376 1 Si 65.5827 1.77641 1.63234 0
377 1 Si 62.5101 1.13884 1.6118 0
378 1 Si 59.6494 7.3186 1.64094 0
379 1 Si 69.0359 5.11268 1.6153 0
380 1 Si 68.9488 8.27706 1.61734 0
381 1 Si 63.1295 10.6416 1.6098 0
382 1 Si 67.7791 11.2031 1.64067 0
383 1 Si 65.2613 13.1008 1.61417 0
384 1 Si 67.4405 176.497 1.61653 0
385 1 Si 65.3838 174.004 1.62383 0
386 1 Si 62.6316 175.468 1.62493 0
387 1 Si 131.01 34.5921 1.63323 0
388 1 Si 71.9501 3.35395 1.64428 0
389 1 Si 74.6059 5.21273 1.63989 0
390 1 Si 74.5095 8.41626 1.62209 0
391 1 Si 71.7193 9.64869 1.5993 0
392 1 Si 72.9404 0.120164 1.62637 0
393 1 Si 70.5305 175.383 1.62603 0
394 1 Si 145.915 34.7458 1.63765 0
395 1 Si 140.41 35.2264 1.62334 0
396 1 Si 143.2 36.5143 1.63014 0
397 1 Si 77.5857 4.10101 1.63498 0
398 1 Si 78.5309 0.986231 1.63694 0
399 1 Si 76.0995 176.306 1.62754 0
400 1 Si 151.279 36.3636 1.62027 0
401 1 Si 148.069 36.9715 1.63647 0
402 1 Si 79.6813 6.4958 1.62568 0
403 1 Si 79.4776 9.65661 1.61656 0
404 1 Si 76.5629 10.8597 1.64134 0
405 1 Si 83.594 2.84324 1.62102 0
406 1 Si 82.7337 5.82491 1.62325 0
407 1 Si 81.7089 0.345493 1.6179 0
408 1 Si 86.6186 2.03792 1.62548 0
409 1 Si 88.6466 4.36359 1.62173 0
410 1 Si 87.7646 7.46139 1.63523 0
411 1 Si 84.6884 8.3175 1.61047 0
412 1 Si 87.3909 176.476 1.61295 0
413 1 Si 84.2168 175.741 1.63526 0
414 1 Si 91.6674 3.40663 1.61025 0
415 1 Si 92.4435 6.51284 1.62545 0
416 1 Si 90.4725 9.10781 1.61944 0
417 1 Si 92.8076 0.36283 1.63853 0
418 1 Si 90.5068 175.48 1.65552 0
419 1 Si 96.889 3.52384 1.62617 0
420 1 Si 96.075 0.195733 1.63103 0
421 1 Si 95.5511 6.6924 1.63114 0
422 1 Si 173.647 34.5275 1.63764 0
423 1 Si 167.874 35.0875 1.62921 0
424 1 Si 170.92 36.6733 1.63235 0
425 1 Si 99.9064 4.3552 1.63215 0
426 1 Si 103.267 174.027 1.63093 0
427 1 Si 100.315 172.948 1.624 0
428 1 Si 97.5304 174.579 1.61944 0
429 1 Si 179.277 33.6417 1.64277 0
430 1 Si 176.712 35.6997 1.62579 0
431 1 Si 182.226 35.062 1.62143 0
432 1 Si 106.343 36.9168 1.63861 0
433 1 Si 103.116 36.9197 1.63811 0
434 1 Si 101.344 34.282 1.61461 0
435 1 Si 43.1609 11.7632 1.62289 0
436 1 Si 40.0586 12.021 1.60841 0
437 1 Si 48.0892 14.3091 1.65197 0
438 1 Si 44.5477 14.6048 1.60875 0
439 1 Si 137.402 36.1572 1.62871 0
440 1 Si 132.128 37.7764 1.62576 0
441 1 Si 135.352 38.5532 1.64709 0
442 1 Si 57.9696 10.0936 1.5939 0
443 1 Si 55.047 11.4918 1.62773 0
444 1 Si 60.3271 12.2074 1.59393 0
445 1 Si 157.503 38.3442 1.65473 0
446 1 Si 164.512 35.7869 1.63294 0
447 1 Si 163.46 39.2903 1.6297 0
448 1 Si 160.094 40.3796 1.62786 0
449 1 Si 70.5794 12.4965 1.58712 0
450 1 Si 152.076 39.3895 1.62104 0
451 1 Si 155.006 40.4601 1.63348 0
452 1 Si 82.5189 10.6719 1.62847 0
453 1 Si 95.9925 10.0366 1.61773 0
454 1 Si 188.418 36.9841 1.63366 0
455 1 Si 193.956 35.6444 1.63605 0
456 1 Si 191.53 37.8826 1.64107 0
457 1 Si 11.5153 13.252 1.64965 0
458 1 Si 182.904 38.1981 1.63941 0
459 1 Si 186.025 39.2486 1.646 0
460 1 Si 199.548 33.9698 1.64239 0
461 1 Si 197.119 36.241 1.63978 0
462 1 Si 17.7516 13.2945 1.64116 0
463 1 Si 14.5691 14.6546 1.64468 0
464 1 Si 0.655045 33.2341 1.64123 0
465 1 Si 202.61 34.8623 1.62096 0
466 1 Si 24.0325 14.0949 1.62724 0
467 1 Si 20.6935 15.0008 1.63092 0
468 1 Si 3.61685 34.5611 1.62009 0
469 1 Si 6.52083 33.2032 1.61388 0
470 1 Si 31.7659 13.8522 1.65506 0
471 1 Si 26.5486 16.7366 1.61739 0
472 1 Si 30.0917 16.6435 1.61686 0
473 1 Si 107.217 40.0737 1.59539 0
474 1 Si 108.398 43.1807 1.63903 0
475 1 Si 111.449 42.7026 1.63099 0
476 1 Si 35.0108 13.643 1.63141 0
477 1 Si 38.1287 14.496 1.59689 0
478 1 Si 126.61 39.3692 1.63325 0
479 1 Si 129.959 40.2656 1.63399 0
480 1 Si 55.9288 14.7696 1.62602 0
481 1 Si 50.3337 17.1292 1.61852 0
482 1 Si 54.0311 17.5019 1.62706 0
483 1 Si 145.816 39.3258 1.62694 0
484 1 Si 149.882 41.6224 1.61422 0
485 1 Si 146.78 42.2325 1.62491 0
486 1 Si 142.626 39.6286 1.6154 0
487 1 Si 75.5682 13.9233 1.63242 0
488 1 Si 72.5013 14.859 1.64076 0
489 1 Si 83.0877 13.7661 1.63983 0
490 1 Si 80.7676 16.0133 1.61061 0
491 1 Si 77.5997 16.3526 1.64714 0
492 1 Si 91.2673 12.2983 1.6224 0
493 1 Si 86.0841 14.8699 1.59699 0
494 1 Si 89.28 14.8395 1.63177 0
495 1 Si 171.402 40.1082 1.62919 0
496 1 Si 177.233 38.9853 1.63097 0
497 1 Si 174.658 41.0753 1.63166 0
498 1 Si 165.581 42.1061 1.63404 0
499 1 Si 169.047 42.6652 1.63233 0
500 1 Si 94.4832 12.9582 1.62748 0
501 1 Si 180.339 40.1917 1.62865 0
502 1 Si 104.568 41.7422 1.62648 0
503 1 Si 102.057 39.9048 1.62066 0
504 1 Si 124.211 41.6931 1.61946 0
505 1 Si 121.009 42.6727 1.63071 0
506 1 Si 41.2459 15.6728 1.62158 0
507 1 Si 137.103 41.2226 1.60866 0
508 1 Si 140.24 41.7039 1.62584 0
509 1 Si 59.2817 15.2157 1.6336 0
510 1 Si 64.8946 16.4644 1.6299 0
511 1 Si 61.6323 17.6364 1.62385 0
512 1 Si 158.677 43.631 1.62581 0
513 1 Si 153.902 43.5103 1.64161 0
514 1 Si 155.933 45.8415 1.62244 0
515 1 Si 70.7724 17.4908 1.60932 0
516 1 Si 67.6521 18.4429 1.63697 0
517 1 Si 160.749 46.0073 1.62182 0
518 1 Si 163.882 45.0397 1.62283 0
519 1 Si 150.888 44.5452 1.60525 0
520 1 Si 85.4042 17.9545 1.62385 0
521 1 Si 82.3883 18.7382 1.62857 0
522 1 Si 96.014 15.9782 1.62546 0
523 1 Si 192.024 41.1154 1.63901 0
524 1 Si 186.705 42.4866 1.65265 0
525 1 Si 189.807 43.5637 1.63704 0
526 1 Si 14.1088 17.8936 1.63334 0
527 1 Si 11.3375 19.7259 1.64625 0
528 1 Si 107.29 46.371 1.58679 0
529 1 Si 104.496 44.8672 1.62742 0
530 1 Si 19.9484 18.1394 1.62949 0
531 1 Si 16.9561 19.3013 1.63429 0
532 1 Si 3.2722 37.5873 1.59188 0
533 1 Si 113.834 44.7658 1.62129 0
534 1 Si 25.2734 19.9352 1.61943 0
535 1 Si 22.0327 20.6245 1.63692 0
536 1 Si 39.506 18.3642 1.6211 0
537 1 Si 32.3965 19.1647 1.62985 0
538 1 Si 35.9837 18.9941 1.61982 0
539 1 Si 131.325 43.4302 1.61624 0
540 1 Si 137.039 44.3596 1.62556 0
541 1 Si 134.121 45.5159 1.62554 0
542 1 Si 49.0059 20.2548 1.62976 0
543 1 Si 42.6377 19.811 1.58789 0
544 1 Si 45.7233 21.2161 1.63606 0
545 1 Si 125.605 44.5334 1.64303 0
546 1 Si 128.709 45.2919 1.63562 0
547 1 Si 145.391 45.09 1.60943 0
548 1 Si 148.302 46.3692 1.63059 0
549 1 Si 140.144 44.8939 1.61713 0
550 1 Si 142.667 46.8859 1.64197 0
551 1 Si 56.5027 20.2831 1.62978 0
552 1 Si 51.3861 22.6716 1.62754 0
553 1 Si 54.7465 23.0721 1.63134 0
554 1 Si 73.0892 19.6446 1.63819 0
555 1 Si 76.2629 19.2921 1.63535 0
556 1 Si 175.591 44.2279 1.62428 0
557 1 Si 170.244 45.9846 1.63113 0
558 1 Si 173.57 46.7686 1.6157 0
559 1 Si 90.4119 17.9214 1.62191 0
560 1 Si 87.8284 19.9402 1.63584 0
561 1 Si 181.194 43.3858 1.63302 0
562 1 Si 178.669 45.3672 1.62447 0
563 1 Si 184.263 44.6764 1.64489 0
564 1 Si 93.6688 18.3104 1.61492 0
565 1 Si 27.2142 22.6302 1.63768 0
566 1 Si 30.5205 21.9947 1.62842 0
567 1 Si 3.88602 40.5484 1.65047 0
568 1 Si 40.2909 21.9218 1.60922 0
569 1 Si 37.1571 21.8918 1.6454 0
570 1 Si 120.115 45.8458 1.61232 0
571 1 Si 114.506 47.9922 1.63718 0
572 1 Si 117.819 48.2592 1.62782 0
573 1 Si 44.8983 24.4276 1.60428 0
574 1 Si 41.7659 24.6405 1.62258 0
575 1 Si 123.212 46.6042 1.62444 0
576 1 Si 60.2601 20.7954 1.62152 0
577 1 Si 68.1386 21.6996 1.63313 0
578 1 Si 62.6535 23.9813 1.63261 0
579 1 Si 66.1243 24.3007 1.62866 0
580 1 Si 71.3643 22.2718 1.62781 0
581 1 Si 81.3432 21.7362 1.61748 0
582 1 Si 78.1117 21.9293 1.64123 0
583 1 Si 154.341 48.9048 1.61611 0
584 1 Si 148.351 49.4671 1.62508 0
585 1 Si 151.362 50.5213 1.623 0
586 1 Si 159.731 49.1779 1.62574 0
587 1 Si 156.872 50.9407 1.62568 0
588 1 Si 86.7646 23.0878 1.63279 0
589 1 Si 83.5585 24.1768 1.62011 0
590 1 Si 164.91 48.1331 1.62022 0
591 1 Si 162.628 50.589 1.63335 0
592 1 Si 168.13 48.6391 1.62921 0
593 1 Si 94.4987 21.338 1.65673 0
594 1 Si 97.5353 22.1985 1.57915 0
595 1 Si 11.7381 22.9997 1.60307 0
596 1 Si 10.671 26.1099 1.63708 0
597 1 Si 17.1192 22.4423 1.62045 0
598 1 Si 14.6232 24.3242 1.63074 0
599 1 Si 190.597 46.8404 1.64131 0
600 1 Si 193.869 47.4842 1.61682 0
601 1 Si 184.953 47.9591 1.64136 0
602 1 Si 188.145 49.1663 1.63647 0
603 1 Si 20.1724 23.3297 1.62393 0
604 1 Si 25.9471 25.782 1.62752 0
605 1 Si 20.2516 26.5816 1.63283 0
606 1 Si 23.2275 27.6508 1.62729 0
607 1 Si 106.762 49.7816 1.62591 0
608 1 Si 112.515 50.8202 1.62953 0
609 1 Si 109.29 51.9016 1.63438 0
610 1 Si 32.201 24.7604 1.63908 0
611 1 Si 35.3641 24.496 1.64437 0
612 1 Si 50.713 25.7978 1.6042 0
613 1 Si 45.3894 27.7082 1.63607 0
614 1 Si 48.479 28.0578 1.62708 0
615 1 Si 129.395 48.3611 1.64298 0
616 1 Si 135.078 48.7276 1.6017 0
617 1 Si 132.13 49.8548 1.61015 0
618 1 Si 123.94 49.5912 1.62677 0
619 1 Si 126.956 50.3161 1.63562 0
620 1 Si 56.0378 26.2376 1.62101 0
621 1 Si 53.2336 27.7108 1.60231 0
622 1 Si 142.633 50.2482 1.63697 0
623 1 Si 145.719 51.3343 1.61459 0
624 1 Si 73.2805 24.8289 1.6326 0
625 1 Si 76.5842 24.7468 1.6479 0
626 1 Si 175.789 49.3518 1.63041 0
627 1 Si 179.096 48.605 1.62503 0
628 1 Si 92.2167 23.5343 1.60496 0
629 1 Si 89.3709 24.9743 1.6481 0
630 1 Si 168.587 51.9336 1.63907 0
631 1 Si 174.745 52.4811 1.63405 0
632 1 Si 171.474 53.4497 1.61045 0
633 1 Si 97.1596 25.2759 1.59579 0
634 1 Si 94.2033 25.9003 1.63433 0
635 1 Si 182.268 49.9648 1.64097 0
636 1 Si 3.55783 47.5822 1.63064 0
637 1 Si 6.44639 42.0558 1.62487 0
638 1 Si 5.70341 45.1287 1.61287 0
639 1 Si 27.8701 28.3443 1.62544 0
640 1 Si 30.9772 27.7536 1.62418 0
641 1 Si 118.86 51.3939 1.63494 0
642 1 Si 121.957 52.0246 1.61828 0
643 1 Si 40.1041 27.2473 1.62343 0
644 1 Si 36.9822 27.1765 1.61682 0
645 1 Si 103.738 51.5059 1.61922 0
646 1 Si 101.765 46.42 1.61064 0
647 1 Si 101.119 49.5567 1.63388 0
648 1 Si 40.8304 30.3035 1.61548 0
649 1 Si 43.9151 30.7615 1.63948 0
650 1 Si 61.7122 27.2647 1.61983 0
651 1 Si 58.6738 28.3948 1.62631 0
652 1 Si 137.055 51.3476 1.61962 0
653 1 Si 140.064 52.474 1.62446 0
654 1 Si 132.267 52.9827 1.62514 0
655 1 Si 135.216 53.9596 1.61887 0
656 1 Si 68.0494 27.1672 1.63469 0
657 1 Si 71.3873 27.427 1.64046 0
658 1 Si 162.954 53.9358 1.63295 0
659 1 Si 155.909 54.146 1.62205 0
660 1 Si 161.015 56.8706 1.625 0
661 1 Si 157.735 56.8156 1.62733 0
662 1 Si 82.0937 27.2317 1.63139 0
663 1 Si 78.6549 27.2851 1.63079 0
664 1 Si 166.194 54.2981 1.6168 0
665 1 Si 150.249 53.6391 1.61984 0
666 1 Si 152.863 55.512 1.62873 0
667 1 Si 89.7537 28.2207 1.63644 0
668 1 Si 83.8384 30.1767 1.63828 0
669 1 Si 87.3042 30.4656 1.63018 0
670 1 Si 188.838 52.5268 1.64494 0
671 1 Si 183.047 53.2386 1.62836 0
672 1 Si 186.164 54.6576 1.63172 0
673 1 Si 196.196 49.8736 1.6336 0
674 1 Si 195.262 52.9849 1.6277 0
675 1 Si 191.995 53.8916 1.61755 0
676 1 Si 14.915 27.4868 1.61825 0
677 1 Si 12.1357 29.0648 1.60528 0
678 1 Si 17.8054 28.8436 1.62879 0
679 1 Si 113.956 53.754 1.60806 0
680 1 Si 108.321 55.2163 1.60432 0
681 1 Si 113.089 56.8881 1.62909 0
682 1 Si 110.128 57.9868 1.61756 0
683 1 Si 117.123 54.085 1.62022 0
684 1 Si 23.2207 30.9311 1.61684 0
685 1 Si 26.3668 31.2084 1.63968 0
686 1 Si 127.039 53.4038 1.62876 0
687 1 Si 129.793 54.8438 1.63275 0
688 1 Si 32.6588 30.5003 1.6276 0
689 1 Si 35.7953 30.1192 1.6228 0
690 1 Si 146.946 54.3314 1.6314 0
691 1 Si 139.259 55.821 1.63166 0
692 1 Si 145.045 57.1673 1.61143 0
693 1 Si 141.726 57.9607 1.62933 0
694 1 Si 49.1846 31.1737 1.61397 0
695 1 Si 52.3071 30.7167 1.63476 0
696 1 Si 63.5478 30.0966 1.62253 0
697 1 Si 66.773 30.2166 1.64337 0
698 1 Si 177.133 54.7898 1.62691 0
699 1 Si 180.448 55.2221 1.62993 0
700 1 Si 73.3202 30.0745 1.64071 0
701 1 Si 76.6601 29.8968 1.63587 0
702 1 Si 93.0173 28.7016 1.63284 0
703 1 Si 203.798 52.9618 1.63019 0
704 1 Si 197.738 55.283 1.617 0
705 1 Si 201.286 55.4133 1.64139 0
706 1 Si 2.58714 53.2062 1.64004 0
707 1 Si 4.96963 50.5372 1.61171 0
708 1 Si 105.534 57.0096 1.62821 0
709 1 Si 102.986 54.8541 1.62658 0
710 1 Si 17.8676 32.1939 1.64463 0
711 1 Si 20.9828 33.3501 1.64856 0
712 1 Si 27.9564 33.9455 1.60297 0
713 1 Si 31.0735 33.2702 1.60719 0
714 1 Si 124.044 54.3873 1.63058 0
715 1 Si 38.2465 32.1365 1.62598 0
716 1 Si 136.007 57.0391 1.62083 0
717 1 Si 117.983 57.2029 1.63166 0
718 1 Si 123.945 57.5036 1.62759 0
719 1 Si 120.886 58.5606 1.62556 0
720 1 Si 47.6568 33.9778 1.62345 0
721 1 Si 44.4646 34.0582 1.6094 0
722 1 Si 59.2569 31.7596 1.63068 0
723 1 Si 53.9124 33.3727 1.61564 0
724 1 Si 57.0112 34.0632 1.62982 0
725 1 Si 62.2829 33.1656 1.61287 0
726 1 Si 71.726 32.9398 1.63833 0
727 1 Si 68.4537 33.1527 1.64168 0
728 1 Si 167.085 57.4724 1.62359 0
729 1 Si 161.905 60.2281 1.61501 0
730 1 Si 165.236 60.4672 1.64529 0
731 1 Si 78.4151 32.5639 1.62427 0
732 1 Si 81.6631 32.7879 1.6071 0
733 1 Si 152.504 58.7714 1.61744 0
734 1 Si 146.426 60.1787 1.62187 0
735 1 Si 149.757 60.8349 1.64568 0
736 1 Si 170.301 56.5717 1.61562 0
737 1 Si 96.1668 29.8499 1.63671 0
738 1 Si 155.734 59.4411 1.61284 0
739 1 Si 175.68 57.6616 1.61168 0
740 1 Si 172.598 58.7777 1.63584 0
741 1 Si 12.1434 32.4022 1.61823 0
742 1 Si 9.62319 34.5682 1.62707 0
743 1 Si 192.381 57.1613 1.62767 0
744 1 Si 195.645 57.8815 1.61791 0
745 1 Si 15.021 34.0505 1.61185 0
746 1 Si 186.59 58.0892 1.65195 0
747 1 Si 189.785 59.3042 1.63796 0
748 1 Si 21.7891 36.6035 1.62933 0
749 1 Si 27.4961 37.1533 1.63848 0
750 1 Si 24.5719 38.4736 1.62557 0
751 1 Si 115.402 59.1254 1.61036 0
752 1 Si 37.8994 35.2641 1.63225 0
753 1 Si 32.2422 36.1586 1.6256 0
754 1 Si 35.2345 36.8764 1.61687 0
755 1 Si 130.032 57.9849 1.61565 0
756 1 Si 133.16 59.1669 1.62871 0
757 1 Si 52.1803 36.0335 1.62743 0
758 1 Si 49.1068 36.7992 1.64622 0
759 1 Si 126.896 58.9915 1.64136 0
760 1 Si 140.761 61.1771 1.60665 0
761 1 Si 143.844 62.3387 1.6132 0
762 1 Si 178.244 59.5412 1.62405 0
763 1 Si 171.825 61.9682 1.63711 0
764 1 Si 177.613 62.5519 1.62796 0
765 1 Si 174.61 63.4018 1.6398 0
766 1 Si 76.7333 35.2886 1.6316 0
767 1 Si 73.5491 35.6416 1.64801 0
768 1 Si 88.8771 33.365 1.63676 0
769 1 Si 81.5205 36.0802 1.63159 0
770 1 Si 87.2022 36.1459 1.64149 0
771 1 Si 84.3164 37.5453 1.63444 0
772 1 Si 181.163 58.3738 1.61374 0
773 1 Si 95.3123 32.8042 1.63493 0
774 1 Si 92.1451 33.511 1.61234 0
775 1 Si 183.85 60.1594 1.64295 0
776 1 Si 98.1803 34.3222 1.64418 0
777 1 Si 3.77146 56.374 1.62576 0
778 1 Si 202.625 58.4989 1.62501 0
779 1 Si 1.31039 58.7237 1.6308 0
780 1 Si 14.1486 37.3131 1.62106 0
781 1 Si 19.5208 38.9151 1.60612 0
782 1 Si 16.3375 39.7816 1.63548 0
783 1 Si 7.10348 57.2973 1.63576 0
784 1 Si 8.41811 49.6465 1.63514 0
785 1 Si 10.45 52.179 1.6274 0
786 1 Si 9.82629 55.4154 1.64019 0
787 1 Si 105.921 60.4144 1.61945 0
788 1 Si 109.094 61.1805 1.61812 0
789 1 Si 40.0031 37.6423 1.62524 0
790 1 Si 43.1315 37.1307 1.63579 0
791 1 Si 120.983 61.721 1.62678 0
792 1 Si 126.631 62.1358 1.62487 0
793 1 Si 123.677 63.3191 1.62593 0
794 1 Si 54.1032 38.4499 1.62519 0
795 1 Si 57.1115 37.2927 1.62542 0
796 1 Si 63.8852 36.2893 1.64099 0
797 1 Si 67.2314 36.3308 1.63533 0
798 1 Si 132.451 62.4878 1.6239 0
799 1 Si 138.217 63.5705 1.61371 0
800 1 Si 134.836 64.7404 1.62494 0
801 1 Si 78.6963 37.7855 1.61114 0
802 1 Si 156.659 62.5394 1.64231 0
803 1 Si 160.003 63.1906 1.63045 0
804 1 Si 93.7399 36.1715 1.61707 0
805 1 Si 96.7188 36.9662 1.61846 0
806 1 Si 169.465 64.2912 1.63292 0
807 1 Si 166.295 63.7148 1.62663 0
808 1 Si 150.534 64.0273 1.62935 0
809 1 Si 153.856 64.3288 1.6307 0
810 1 Si 10.8406 37.7467 1.62118 0
811 1 Si 9.30338 40.7451 1.62113 0
812 1 Si 190.616 62.6027 1.62623 0
813 1 Si 196.815 61.0141 1.63736 0
814 1 Si 194.07 63.2985 1.62138 0
815 1 Si 182.902 63.4613 1.63491 0
816 1 Si 188.128 65.0942 1.60907 0
817 1 Si 184.83 66.061 1.624 0
818 1 Si 30.3272 38.6737 1.59695 0
819 1 Si 200.445 61.1982 1.62284 0
820 1 Si 35.4891 40.0077 1.60991 0
821 1 Si 38.5849 40.5353 1.64126 0
822 1 Si 103.951 63.1093 1.64494 0
823 1 Si 100.845 62.1618 1.63674 0
824 1 Si 99.8926 56.1135 1.63633 0
825 1 Si 99.4541 59.2846 1.63294 0
826 1 Si 47.7188 39.7478 1.64525 0
827 1 Si 44.5331 40.1404 1.64179 0
828 1 Si 115.595 62.3483 1.65014 0
829 1 Si 118.483 63.6373 1.61888 0
830 1 Si 52.5645 41.2786 1.63752 0
831 1 Si 49.5249 42.4111 1.62709 0
832 1 Si 59.3111 39.5889 1.64314 0
833 1 Si 62.587 39.4384 1.65219 0
834 1 Si 110.312 64.407 1.62783 0
835 1 Si 113.49 64.7167 1.63809 0
836 1 Si 69.1788 39.204 1.61345 0
837 1 Si 72.3529 38.6572 1.61246 0
838 1 Si 129.334 63.9142 1.61428 0
839 1 Si 143.217 65.5545 1.62248 0
840 1 Si 148.628 66.8682 1.64934 0
841 1 Si 145.355 68.0215 1.6307 0
842 1 Si 122.698 66.3517 1.61829 0
843 1 Si 128.035 66.9602 1.62424 0
844 1 Si 125.067 68.3856 1.6263 0
845 1 Si 89.0686 38.639 1.60829 0
846 1 Si 92.1184 38.684 1.61565 0
847 1 Si 96.8625 40.0349 1.64255 0
848 1 Si 99.4428 41.6751 1.63575 0
849 1 Si 179.865 64.771 1.61917 0
850 1 Si 174.794 66.4738 1.61768 0
851 1 Si 177.843 67.29 1.64076 0
852 1 Si 169.658 67.6112 1.62695 0
853 1 Si 172.641 68.769 1.62899 0
854 1 Si 21.0315 41.6996 1.60884 0
855 1 Si 15.8466 43.1105 1.62649 0
856 1 Si 18.9422 44.0401 1.62391 0
857 1 Si 24.226 41.7487 1.61143 0
858 1 Si 2.69349 61.6589 1.62894 0
859 1 Si 202.297 64.0621 1.63741 0