LAMMPS data file via write_data, version 23 Jun 2022, timestep = 7759

15696 atoms
2 atom types

5.27363946445875 200.7273241416015 xlo xhi
4.7434332282497484 172.5954822560814 ylo yhi
-100 100 zlo zhi

Masses

1 28.085
2 15.999

Atoms # full

6698 1 1 0 10.564730238100335 5.449387098352442 -1.631042930874798 0 0 0
9426 1 2 0 10.252256888831258 6.971647967687699 -2.1580520241046797 0 0 0
9433 1 2 0 12.073177784381103 5.048321319041674 -2.088169799576444 0 0 0
6888 1 1 0 13.616387997792446 4.856317031562677 -1.6286726499714101 0 0 0
9716 1 2 0 14.563095529393832 6.078673685396932 -2.1051531183076455 0 0 0
6886 1 1 0 15.82512848065828 6.982244970857673 -1.6429158370509018 0 0 0
9717 1 2 0 17.207290125781647 6.26206129335962 -2.1030973200842515 0 0 0
6891 1 1 0 18.725986137413983 5.952092970211747 -1.6298793541827137 0 0 0
9723 1 2 0 19.695671219542973 7.125044416344106 -2.1642913143305282 0 0 0
9736 1 2 0 24.549656727634538 5.896047132119319 -2.1632976213356288 0 0 0
6905 1 1 0 30.892391817372104 5.3348257556373095 -1.6025014963925668 0 0 0
9744 1 2 0 31.219489058020052 6.816066770115149 -2.1775064140269036 0 0 0
9762 1 2 0 34.71594141068397 5.916743146487859 -2.141654078607523 0 0 0
9769 1 2 0 39.34547643819607 6.172099267438453 -2.11664009736978 0 0 0
6924 1 1 0 40.134461487606124 4.832488591907422 -1.572175512682003 0 0 0
9777 1 2 0 41.53183961219333 5.507661188777839 -2.077898607742987 0 0 0
6923 1 1 0 42.82699983882501 6.303319705562164 -1.5980480758170659 0 0 0
9778 1 2 0 44.196268420501134 5.586980142202461 -2.0076667030440336 0 0 0
6928 1 1 0 45.73261937071991 5.33737970585688 -1.5897414761948416 0 0 0
9783 1 2 0 46.64957678070737 6.551738419734854 -2.1665567840184683 0 0 0
9789 1 2 0 50.28507617343229 5.1465769407347475 -2.048456720940459 0 0 0
6930 1 1 0 50.43893754425949 6.791812619820051 -1.6429471494787298 0 0 0
9795 1 2 0 55.11380408494512 6.228119013909622 -2.145874284938479 0 0 0
9807 1 2 0 61.45427851730405 6.581489921834588 -2.1537655075296556 0 0 0
6942 1 1 0 62.45726940964732 5.407757616247335 -1.6530189563780406 0 0 0
9810 1 2 0 63.99392016428214 5.404263117892894 -2.170419262170847 0 0 0
6948 1 1 0 65.50751696810465 5.593546913627406 -1.618614506224653 0 0 0
9817 1 2 0 65.79786433107239 7.139355567555671 -2.0147113688973217 0 0 0
9830 1 2 0 69.23995991545362 5.307576437592464 -1.8558089505791062 0 1 0
6955 1 1 0 70.72261242592761 5.912720141389292 -1.587452652016018 0 0 0
9831 1 2 0 71.97379857462377 4.9429034090104595 -2.0309489770897784 0 1 0
9840 1 2 0 76.37538369493963 5.720980525571983 -2.0125518443673576 0 0 0
9850 1 2 0 82.73356827909011 6.063114083692586 -1.963539386991428 0 0 0
9866 1 2 0 87.77583374540109 5.6525113657474515 -1.9608359023769337 0 0 0
6977 1 1 0 89.10802945374765 6.565191456414996 -1.618512856214847 0 0 0
9867 1 2 0 90.63394754316471 6.160749165034063 -2.09218472265149 0 0 0
6986 1 1 0 92.21058220164356 6.1840814080596695 -1.6013293693506023 0 0 0
9886 1 2 0 97.68117527622613 5.65455350888218 -2.0283985980978683 0 0 0
6688 1 1 0 6.759136496267163 9.13696651646953 -1.6298749372546921 0 0 0
9413 1 2 0 5.532443539743715 8.13390889497676 -2.096982445755515 0 0 0
6694 1 1 0 9.79826858051743 8.462275400815507 -1.640497752879457 0 0 0
9416 1 2 0 8.254468256406838 8.692551352622559 -2.1349574787374723 0 0 0
9715 1 2 0 15.609052594495932 8.52103864569523 -2.136939272896954 0 0 0
6892 1 1 0 20.884244278131934 8.061172315096943 -1.6125303165395233 0 0 0
9726 1 2 0 22.273299730497488 7.292156900799139 -1.915048193249223 0 0 0
9725 1 2 0 20.64890709851705 9.58468613063917 -2.1229614926810223 0 0 0
6898 1 1 0 23.860757901351874 7.26222017745591 -1.599473454172513 0 0 0
9735 1 2 0 24.217200837715616 8.750720123263966 -2.1601039302227267 0 0 0
9743 1 2 0 30.505754836024863 9.368389195866449 -2.1600888318869798 0 0 0
6903 1 1 0 31.574053376221315 8.293603211594395 -1.6311190931746378 0 0 0
9745 1 2 0 32.9463218123507 9.036718336582924 -2.0577647891916584 0 0 0
9758 1 2 0 35.143777210393566 8.725588501636373 -2.066216334215204 0 0 0
6914 1 1 0 35.60796286069584 7.2129623873627216 -1.6359800281212091 0 0 0
9763 1 2 0 37.14196776537939 7.314744748093734 -2.1732253418966265 0 0 0
6918 1 1 0 38.66076674328366 7.588264111800543 -1.6498579446023953 0 0 0
9766 1 2 0 39.32157675788444 9.022630754905215 -2.1428903111186197 0 0 0
6922 1 1 0 43.04142750171729 9.280518284011809 -1.5946988860722155 0 0 0
9775 1 2 0 42.84845596923709 7.798325169724975 -2.17811511819369 0 0 0
9781 1 2 0 46.952581524118344 9.294662192576048 -2.086246116111163 0 0 0
6927 1 1 0 47.537321989657464 7.826314298846274 -1.6540678036515426 0 0 0
9784 1 2 0 49.04830870577101 7.489675522683353 -2.1430939594295566 0 0 0
9786 1 2 0 51.49917487706777 8.032250440326093 -2.1069001247089827 0 0 0
6929 1 1 0 52.42860356252865 9.362804498701099 -1.6072952407950218 0 0 0
9788 1 2 0 53.90154736526455 8.748048226754076 -1.9841727673556488 0 0 0
6934 1 1 0 55.15478474667039 7.775559736239796 -1.6144858487572757 0 0 0
9796 1 2 0 56.50843740597589 8.494927442189745 -2.148397905059486 0 0 0
6938 1 1 0 57.873920631828874 9.195866469231467 -1.630471782399825 0 0 0
9803 1 2 0 59.16480380335858 8.332068591826365 -2.1311742110651517 0 0 0
6941 1 1 0 60.62796793893913 7.861541176449094 -1.5950651107267027 0 0 0
9808 1 2 0 61.58659886162252 9.0996572413055 -1.9821064171332845 0 0 0
9815 1 2 0 64.20199320181852 9.42945646571288 -2.170727009374756 0 0 0
6947 1 1 0 65.56256799380199 8.694302848330887 -1.6233013689622204 0 0 0
9818 1 2 0 66.89857972144056 9.465286323270133 -2.1092062757066192 0 0 0
9828 1 2 0 70.60731906912339 7.444551664630486 -2.1522340770812747 0 0 0
6954 1 1 0 70.72069499850262 9.003823054242085 -1.6360462450394908 0 0 0
9829 1 2 0 72.30625630506601 9.175215349858268 -2.1145141256421143 0 0 0
6957 1 1 0 73.8989523601421 9.291860884593607 -1.6336274212834205 0 0 0
9834 1 2 0 75.0943802471949 8.201575036793203 -2.0426602263461997 0 0 0
6961 1 1 0 76.48566072049942 7.3596752014318305 -1.6238971630613077 0 0 0
9841 1 2 0 77.92730632410107 8.134653757103525 -2.0812071852498666 0 0 0
6964 1 1 0 79.266579562109 9.088128105477765 -1.6558024561400697 0 0 0
9846 1 2 0 80.81638808080001 8.40702065732289 -2.0925358634811175 0 0 0
6967 1 1 0 82.33752754594632 7.677981362906725 -1.6262893596429229 0 0 0
9851 1 2 0 83.78921214423215 8.411937511146872 -2.071285550485244 0 0 0
6972 1 1 0 85.15713902320992 9.277006714348675 -1.6298201460463935 0 0 0
9858 1 2 0 86.7819633782915 9.329282439111418 -2.074210382245307 0 0 0
9864 1 2 0 88.90252033402898 8.093953400638512 -2.1490106148153263 0 0 0
6976 1 1 0 88.39350046395374 9.564225345970597 -1.644855174393512 0 0 0
9878 1 2 0 93.21998895120473 7.402947497634784 -2.117910443232275 0 0 0
6984 1 1 0 94.49279213638339 8.357233865360168 -1.6209563370131441 0 0 0
9879 1 2 0 95.91450788547682 7.6994827406488096 -2.11386971085434 0 0 0
6989 1 1 0 97.40114630145563 7.21626597043252 -1.6201541745539216 0 0 0
6990 1 1 0 99.65045072158465 9.375842706769319 -1.64624472879714 0 0 0
9885 1 2 0 98.56109553826701 8.251693815020019 -2.1550186481649205 0 0 0
6704 1 1 0 102.6209485088717 8.324324983183846 -1.6214444953113962 0 0 0
9443 1 2 0 101.16557074110861 8.916461578426986 -2.1150105608039147 0 0 0
9415 1 2 0 6.622207943278 10.703786367351205 -2.093966297334847 0 0 0
6697 1 1 0 11.9911606294248 10.721329825731178 -1.631580453248604 0 0 0
9425 1 2 0 10.788069033526169 9.698118962395624 -2.080965033607733 0 0 0
9431 1 2 0 13.441851047546635 10.17136338655651 -2.145499731098215 0 0 0
6887 1 1 0 14.969259462390907 9.933128288420939 -1.62847973797669 0 0 0
9718 1 2 0 15.869856785733147 11.225339236155147 -2.020208083617478 0 0 0
6894 1 1 0 17.16677346309157 12.108554013759571 -1.6189920911946596 0 0 0
9727 1 2 0 18.510914995012836 11.3686816772754 -2.1517310859945673 0 0 0
6893 1 1 0 19.97747215318814 10.9680375835389 -1.596211262698856 0 0 0
9737 1 2 0 23.275154673119477 11.473686563451292 -2.1427949187361257 0 0 0
6899 1 1 0 24.293509115215432 10.295170983926404 -1.658445649062582 0 0 0
9738 1 2 0 25.675663758475114 10.904463147515635 -2.2043787389177267 0 0 0
6906 1 1 0 26.96935747902195 11.619378988232839 -1.6013722860317512 0 0 0
9746 1 2 0 28.281360819173347 10.823865479055275 -2.0356390815586636 0 0 0
6904 1 1 0 29.80559116098862 10.689939393900845 -1.5940162196949106 0 0 0
9747 1 2 0 30.60019942190948 12.046984997823715 -1.9444506698832187 0 0 0
6911 1 1 0 34.19865399828462 9.982033771622985 -1.5944966485439207 0 0 0
9757 1 2 0 34.16267203526643 11.532912416190435 -2.1466132419536246 0 0 0
6917 1 1 0 40.151422732674206 10.338875697586916 -1.5792941387599828 0 0 0
9767 1 2 0 40.320736214055536 11.924777627491979 -2.0034994585307895 0 0 0
9768 1 2 0 41.7279388268026 10.135169176924071 -1.9292169263207715 0 0 0
9776 1 2 0 44.45804732412773 9.844442985052714 -2.0917979087823375 0 0 0
9780 1 2 0 45.28146285715153 11.890452030417665 -2.0978447762294357 0 0 0
6925 1 1 0 45.887274866079615 10.442033834469642 -1.5883899294319097 0 0 0
9787 1 2 0 52.45363578294117 10.994440424405983 -2.099681129810035 0 0 0
9802 1 2 0 57.894027532177994 10.767541577624643 -2.0552011840166813 0 0 0
9814 1 2 0 62.19732577830576 11.512177909445032 -2.085359424097254 0 0 0
6945 1 1 0 62.810273877268195 10.079080052015485 -1.5997511153353676 0 0 0
9823 1 2 0 67.00537430338622 11.91298991623924 -2.1262741625357235 0 0 0
6951 1 1 0 67.9592355541687 10.607895554403942 -1.6489180016956118 0 0 0
9824 1 2 0 69.49660599312102 10.06764884752434 -2.063649591496033 0 0 0
9833 1 2 0 74.15252682276676 10.847831479681433 -2.0978718547265105 0 0 0
9845 1 2 0 78.88329761473273 10.707725044382357 -2.0717702882892852 0 0 0
9857 1 2 0 84.91465676141229 10.78984274363678 -2.168529561076526 0 0 0
9865 1 2 0 89.50954808041348 10.738033459302093 -2.120740108403798 0 0 0
6981 1 1 0 90.82124151108705 11.683884298703445 -1.6467224802934355 0 0 0
9873 1 2 0 92.3847615466458 11.347431895437644 -2.071053299222836 0 0 0
6985 1 1 0 93.9715485116894 11.51008209755766 -1.614964355110702 0 0 0
9877 1 2 0 94.5299378666726 9.983197784948628 -1.948078452574712 0 0 0
9887 1 2 0 99.17157887019067 10.891136105159964 -2.104234231548788 0 0 0
6689 1 1 0 6.402265470152808 12.25998055870206 -1.6306330918338738 0 0 0
9418 1 2 0 7.5591539301155635 13.337063776811748 -2.093126853853682 0 0 0
9427 1 2 0 10.141378759350737 14.284966795302054 -2.1526239827403004 0 0 0
6695 1 1 0 8.600966502331314 14.526646336639141 -1.6227236279634811 0 0 0
6696 1 1 0 11.643995700954616 13.849514186998054 -1.63563448845745 0 0 0
9429 1 2 0 11.84839184754051 12.287195013869013 -2.109436803592035 0 0 0
9729 1 2 0 17.13383137075242 13.659697135550813 -2.107741280350027 0 0 0
9728 1 2 0 20.933198206290403 12.250891721351275 -1.7973043896145577 0 0 0
6900 1 1 0 22.446897064435486 12.76479087136041 -1.580330028447268 0 0 0
9739 1 2 0 22.612043544018295 14.288502925546066 -2.137915594881256 0 0 0
9750 1 2 0 27.153568236974035 13.162584938120704 -1.9988762618480946 0 0 0
9761 1 2 0 29.471728340567115 14.418552762378155 -2.0662784793499767 0 0 0
7002 1 1 0 27.89655458775826 14.548509475458292 -1.609308960991248 0 0 0
6913 1 1 0 30.831467741565277 13.62039163204196 -1.5944859663794602 0 0 0
9759 1 2 0 32.39032456133939 13.653731631496445 -2.1030007765325616 0 0 0
6912 1 1 0 33.864375599058384 13.083514951678255 -1.657740629017039 0 0 0
9760 1 2 0 34.962633738565806 14.204919491267763 -2.1089345310449223 0 0 0
6919 1 1 0 41.14498110095271 13.306501301486275 -1.629133703530946 0 0 0
9770 1 2 0 40.02085990583618 14.429243980396302 -2.1317022344266467 0 0 0
9771 1 2 0 42.76028664429055 13.300795877245447 -2.117976009183371 0 0 0
6926 1 1 0 44.36588878650292 13.187141736277685 -1.634863803406521 0 0 0
9782 1 2 0 45.540749093576956 14.22919390003999 -2.157101904893513 0 0 0
9790 1 2 0 51.18941053313003 13.474882888557008 -2.0701932153615004 0 0 0
6933 1 1 0 49.98944913229202 14.573455091818929 -1.6017120047168496 0 0 0
6931 1 1 0 52.59312884954232 12.633479107155498 -1.6410436076818036 0 0 0
9791 1 2 0 54.03420815635261 13.468567158392636 -2.0165575196815375 0 0 0
6940 1 1 0 55.54670692024955 14.144801750715796 -1.6291960983943385 0 0 0
9804 1 2 0 56.838475380093215 13.231822253636214 -2.141583518883833 0 0 0
6939 1 1 0 58.1217874228415 12.327041723679816 -1.6253456343451549 0 0 0
9805 1 2 0 59.64697437470433 12.687830325594277 -2.1372367529295135 0 0 0
6946 1 1 0 61.210605226828655 12.736618583249543 -1.6352060274931826 0 0 0
9816 1 2 0 62.02061867392026 14.082776484521471 -2.028694825288645 0 0 0
9825 1 2 0 64.61057805899884 14.01786530202239 -2.1100176124973125 0 0 0
6952 1 1 0 65.98007833848018 13.165862607609172 -1.6229664557211638 0 0 0
9826 1 2 0 67.0650527065722 14.268707329839485 -2.125207164319405 0 0 0
9837 1 2 0 69.76692693284147 14.261523853099042 -2.0964206557864355 0 0 0
6960 1 1 0 71.29495569169814 14.103736008404196 -1.589159436415529 0 0 0
9835 1 2 0 72.28095545870865 12.897285829717767 -2.031287500564628 0 0 0
6958 1 1 0 73.7588427507438 12.360314934422787 -1.6199975779828342 0 0 0
9836 1 2 0 74.7172738045841 13.628000000902517 -1.9860053109826936 0 0 0
6966 1 1 0 76.06267100883508 14.475829409249682 -1.6007020051582777 0 0 0
9847 1 2 0 77.07712558807194 13.22425449524534 -2.062983437204236 0 0 0
6965 1 1 0 78.39559104816449 12.269082370765966 -1.604869388476855 0 0 0
9848 1 2 0 79.01004683037709 13.729892127963735 -2.1500623873104963 0 0 0
6974 1 1 0 82.63253161298387 14.227153539824524 -1.601873176030511 0 0 0
9861 1 2 0 81.16829498479191 14.594221570120455 -2.178640434336895 0 0 0
9859 1 2 0 83.59353455495753 13.023768287510581 -2.081416928989755 0 0 0
6973 1 1 0 84.98237449602398 12.31405343544771 -1.653506045889651 0 0 0
9860 1 2 0 86.30600186783873 13.126437636166866 -2.1602982052370603 0 0 0
6983 1 1 0 87.44170191389033 14.148592618984562 -1.5993429405583275 0 0 0
9874 1 2 0 88.98949687061848 14.238661964379515 -2.080540348684792 0 0 0
9872 1 2 0 90.87684657573188 13.26562400954529 -2.1280220560934966 0 0 0
9880 1 2 0 94.85587254705413 12.879539033340114 -2.084829832056805 0 0 0
6992 1 1 0 96.04875119300186 14.009133567821399 -1.6219357412800208 0 0 0
9888 1 2 0 97.37590738142866 13.092051755030141 -2.006750517524399 0 0 0
6991 1 1 0 98.83205664050044 12.433877600686026 -1.617095419053403 0 0 0
9511 1 2 0 99.96782901271787 13.47608686786648 -2.159799903548052 0 0 0
9441 1 2 0 102.57452228760826 13.567768614653446 -2.0548881826971206 0 0 0
6749 1 1 0 101.22723297947243 14.356816105002551 -1.6172456818226757 0 0 0
9428 1 2 0 8.107824343372434 16.03700750096222 -2.0356045801253355 0 0 0
6784 1 1 0 13.986802938211543 16.00689904269636 -1.6430217015632103 0 0 0
9430 1 2 0 12.851851403884913 14.886431576419477 -2.085246488630864 0 0 0
9565 1 2 0 15.522933427716822 15.690228650666299 -2.1571502935864526 0 0 0
6998 1 1 0 17.012586863411595 15.216204508632538 -1.6303163703916033 0 0 0
9897 1 2 0 18.34225592754025 16.078435567236376 -2.0912881467879316 0 0 0
7001 1 1 0 19.61032929669631 17.031701674052286 -1.6216487197808924 0 0 0
9899 1 2 0 21.120787569351464 16.55992524916514 -2.145667820810785 0 0 0
7000 1 1 0 22.543764169897003 15.854265600947812 -1.6493178899226988 0 0 0
9900 1 2 0 24.00417200888992 16.517832222937646 -2.049211698416651 0 0 0
7022 1 1 0 25.593984825241154 16.589748062444528 -1.6249524826744568 0 0 0
9902 1 2 0 26.717960410167223 15.527618077439254 -2.1797335078760383 0 0 0
6920 1 1 0 35.67643247529615 15.604073683803081 -1.627648632592066 0 0 0
9773 1 2 0 34.67198667115978 16.877932107633523 -2.018926717210175 0 0 0
9772 1 2 0 37.27328598660279 15.561352170042152 -2.1035335687411694 0 0 0
6921 1 1 0 38.863134014982194 15.501823803312755 -1.6011177768656646 0 0 0
9774 1 2 0 39.547379884261815 16.950918412479275 -1.9339336212385438 0 0 0
9793 1 2 0 46.033368749141864 16.574019316499676 -2.0882557858505484 0 0 0
6932 1 1 0 46.804262627235154 15.163510530418991 -1.6363580424310185 0 0 0
9792 1 2 0 48.37564527543866 14.742347796702692 -2.097070047125243 0 0 0
9794 1 2 0 50.66348196231466 16.030177703704265 -1.9291143857138575 0 0 0
9806 1 2 0 55.96727527651505 15.712248138322318 -2.076563230209836 0 0 0
6953 1 1 0 63.32009881075876 14.976216543856006 -1.6191536035002725 0 0 0
9827 1 2 0 62.804443279705524 16.480103915981697 -2.1345449915365053 0 0 0
6959 1 1 0 68.40282064949511 14.99647463266538 -1.6234929390552162 0 0 0
9838 1 2 0 68.5020915869406 16.554293601715877 -2.013402442352486 0 0 0
9839 1 2 0 72.10415313246207 15.48398794257436 -1.8701728791322787 0 0 0
7051 1 1 0 72.24048993755179 17.07658944381922 -1.5860541713714496 0 0 0
9849 1 2 0 75.95977479999634 16.096731646756258 -2.049324370860256 0 0 0
6975 1 1 0 79.72168920959751 15.134363993972523 -1.6523640950439007 0 0 0
9863 1 2 0 79.36690775593692 16.688125568794877 -2.1155834930688022 0 0 0
9862 1 2 0 83.4589291979266 15.528186699311698 -2.0618297050860037 0 0 0
7055 1 1 0 83.92113336845804 16.990143944779913 -1.622828425615183 0 0 0
9876 1 2 0 87.21816375805533 15.678195942797993 -2.0796703848554596 0 0 0
6982 1 1 0 90.46598485784496 14.788230842985609 -1.6141421348583582 0 0 0
9875 1 2 0 90.83518945517905 16.31313566892741 -2.1541516746647935 0 0 0
9889 1 2 0 96.23414816488815 15.65517015194022 -2.095131931951504 0 0 0
9509 1 2 0 101.25948971793392 15.91671895253641 -2.0785878197238623 0 0 0
9504 1 2 0 6.405575600607725 18.105675307361285 -2.126182709031088 0 0 0
6746 1 1 0 7.912749675367818 17.61836204991018 -1.6291602226073814 0 0 0
9506 1 2 0 9.208004418341893 18.538754320465763 -2.109986861652053 0 0 0
9560 1 2 0 11.896622217379793 19.517359487053998 -2.0450701913579445 0 0 0
9564 1 2 0 13.645986370228655 17.539726473540895 -2.131935849333984 0 0 0
6785 1 1 0 13.43739860101408 19.091293769286494 -1.6139172604539824 0 0 0
9901 1 2 0 19.232670771723274 18.581493439009883 -2.0298528503980027 0 0 0
9932 1 2 0 26.55689253492014 17.810028306808405 -2.14118755589419 0 0 0
7029 1 1 0 27.622824823980643 18.958462565387954 -1.616129669547742 0 0 0
9943 1 2 0 29.243336175885776 18.95544398059407 -2.092282104731463 0 0 0
7030 1 1 0 30.843718087813475 19.299891845808038 -1.61079713736758 0 0 0
9941 1 2 0 32.37980545046487 18.709814389825535 -2.100030253912409 0 0 0
7028 1 1 0 33.99365412531375 18.35489357339705 -1.6271105381425872 0 0 0
9942 1 2 0 35.271440259483185 19.356579977981255 -2.042090271099017 0 0 0
9947 1 2 0 38.155180390041814 19.175608769250797 -2.053712086945884 0 0 0
7032 1 1 0 39.625488649643195 18.548622480767516 -1.6052445836467217 0 0 0
9948 1 2 0 41.0721271861258 19.200572144191913 -2.1321311806431016 0 0 0
9950 1 2 0 43.870081794860596 18.757146192560775 -2.107246055726175 0 0 0
7034 1 1 0 45.26660660233199 17.976108305449408 -1.5928550100389496 0 0 0
9951 1 2 0 46.604517408809784 18.829909488938412 -1.992024266882417 0 0 0
7037 1 1 0 48.12435703633222 19.282421333778657 -1.6134222456501526 0 0 0
9953 1 2 0 49.4128495244572 18.404391046590998 -2.1241926616328266 0 0 0
7036 1 1 0 50.76894229342846 17.62589528719957 -1.609984344837159 0 0 0
9954 1 2 0 52.22640420640628 18.166776405613334 -2.1543387593834584 0 0 0
7039 1 1 0 53.6363484752392 18.83490815315866 -1.6240978087096367 0 0 0
9956 1 2 0 55.06700003083558 18.144678179222097 -2.040818565366404 0 0 0
7038 1 1 0 56.40444934829207 17.272191798215466 -1.6227317276348854 0 0 0
9957 1 2 0 57.837901190642654 18.04752064659691 -2.100508010643728 0 0 0
9959 1 2 0 60.70278855076688 18.568291469816433 -2.084008176616608 0 0 0
7041 1 1 0 59.120754405968995 19.06677643213683 -1.6400136183369087 0 0 0
7040 1 1 0 62.24932232593749 17.982535580683326 -1.6351156308549142 0 0 0
9960 1 2 0 63.633716291700146 18.827494834777784 -2.063536540605175 0 0 0
9969 1 2 0 68.5739010041938 19.216010127233282 -2.1521128317342084 0 0 0
7046 1 1 0 69.30358671574388 17.893623374657373 -1.6149720532427667 0 0 0
9970 1 2 0 70.86041953112769 17.787778482702073 -2.0571030472324012 0 0 0
9977 1 2 0 73.69933782666422 17.529332033367446 -2.1392702905721674 0 0 0
7054 1 1 0 75.26289280194086 17.57604931673086 -1.6537583289889806 0 0 0
9981 1 2 0 75.76087543045259 19.099302122231542 -2.1201129729704893 0 0 0
7056 1 1 0 79.44363405589766 18.259779494541473 -1.5836162485802905 0 0 0
9984 1 2 0 80.82810448392964 19.039433390761182 -2.0178958444382378 0 0 0
9982 1 2 0 83.07053836039785 18.215309895860077 -2.1906475251502022 0 0 0
7057 1 1 0 82.31364364450401 19.4981971743437 -1.597056853283892 0 0 0
9983 1 2 0 85.3944888898178 17.304733887615615 -2.135591691070527 0 0 0
7058 1 1 0 86.89592334958279 17.182060396918942 -1.6170701478041398 0 0 0
9987 1 2 0 87.77598204322965 18.401199591596505 -2.1762402788645367 0 0 0
9923 1 2 0 90.10231604360222 19.080725013318514 -1.944115857531373 0 0 0
7015 1 1 0 91.16566565197779 17.85934147561095 -1.6261958575261508 0 0 0
9922 1 2 0 92.60148727910884 18.470602793883444 -2.1301466329515018 0 0 0
9924 1 2 0 95.21632660399315 18.348455359426573 -2.0612490683619145 0 0 0
7017 1 1 0 93.92924680374466 19.298967562396598 -1.6208037491279152 0 0 0
7016 1 1 0 96.43922153344505 17.303761955083353 -1.6251377413336192 0 0 0
9572 1 2 0 97.78550448393986 18.249367162647214 -2.0194102350935115 0 0 0
9510 1 2 0 100.42695460376382 18.440934471890184 -2.14233382987009 0 0 0
6788 1 1 0 99.08977650478134 19.24650222760261 -1.6328954865171574 0 0 0
6748 1 1 0 101.6184306763045 17.444349582997923 -1.6332658572179224 0 0 0
9559 1 2 0 9.799373809812607 21.16693215879029 -2.119817142024323 0 0 0
6781 1 1 0 10.304328147094656 19.687464023747722 -1.6273560768292739 0 0 0
9566 1 2 0 14.698468500703443 20.09651370900532 -2.03348899293963 0 0 0
7065 1 1 0 15.92408930352008 21.155580120219657 -1.6273670410613026 0 0 0
9995 1 2 0 17.476925964797033 20.69906452606157 -2.083535659677112 0 0 0
7064 1 1 0 19.0000623568131 20.16239741731556 -1.6220381990317345 0 0 0
9996 1 2 0 20.380803936061938 20.950429998740987 -2.142765847773476 0 0 0
7069 1 1 0 21.812328834806383 21.654939294572614 -1.6420999436067234 0 0 0
10001 1 2 0 23.26290249598243 20.924675074369905 -2.065417679917421 0 0 0
7068 1 1 0 24.834936211316837 20.596015904605913 -1.5750526793145418 0 0 0
9944 1 2 0 26.285248015275638 19.877389906779804 -2.083779563576876 0 0 0
10002 1 2 0 25.786609342533744 21.8579592664229 -2.012137758926604 0 0 0
9945 1 2 0 30.776829588693328 20.914226009887557 -1.9218726631108147 0 0 0
7033 1 1 0 36.76572495862468 19.977899794253666 -1.6270999770990635 0 0 0
9949 1 2 0 36.997546637618505 21.521502789230098 -2.1601825265202272 0 0 0
7035 1 1 0 42.579763146320595 19.734327848453187 -1.6362668002632856 0 0 0
9952 1 2 0 42.77897761312477 21.350739940834853 -2.01247373296258 0 0 0
9955 1 2 0 48.102515576113625 20.80586756420027 -2.170464947351221 0 0 0
9958 1 2 0 53.62281715461818 20.384964901848424 -2.1134329206017157 0 0 0
7099 1 1 0 53.425719430786394 21.911688964288587 -1.609502134231859 0 0 0
9961 1 2 0 58.712271422667214 20.664250489628476 -2.0222368803040944 0 0 0
7047 1 1 0 64.9171014966676 19.799496553533817 -1.5838463888232361 0 0 0
9972 1 2 0 64.0890350988623 21.14081345553977 -1.9722591874484157 0 0 0
9971 1 2 0 66.44159532342367 20.2843353034895 -2.1124651223070954 0 0 0
7048 1 1 0 68.01823116155111 20.651853896171364 -1.6218198017117098 0 0 0
9973 1 2 0 69.46926527059014 21.392965344036288 -2.096054137887075 0 0 0
7111 1 1 0 75.8874397933147 20.692096113924038 -1.6397163337297973 0 0 0
10064 1 2 0 74.78052173725544 21.82626707471788 -2.0597675643849604 0 0 0
10065 1 2 0 77.30542066455232 21.375284684078785 -2.073447177109003 0 0 0
9985 1 2 0 78.97206176677578 19.777310538233312 -2.111892884015207 0 0 0
7113 1 1 0 78.88489223798041 21.371561956578507 -1.6475232794016883 0 0 0
9986 1 2 0 82.96886154885306 20.87688311300715 -2.1137714416552917 0 0 0
9991 1 2 0 87.87340350000912 21.05998442488134 -2.1417484164529297 0 0 0
7061 1 1 0 88.60543446872849 19.675978208481702 -1.6198138177539194 0 0 0
9925 1 2 0 93.87481219260687 20.91222665455085 -2.0544108112278545 0 0 0
9571 1 2 0 99.33713912478927 20.84544675941367 -2.1076511503901685 0 0 0
6782 1 1 0 6.2271449611072525 23.28368979836962 -1.629382401031349 0 0 0
6783 1 1 0 9.365707077729512 22.669554184743895 -1.6317995353262695 0 0 0
9561 1 2 0 7.777364205183974 22.883751678261646 -2.053299312522455 0 0 0
9563 1 2 0 10.546740433495584 23.722861612002188 -2.1510410748210305 0 0 0
9634 1 2 0 13.334959803992243 24.442330632899026 -2.0452476295916955 0 0 0
7124 1 1 0 14.936235763843323 24.17957621034932 -1.6376412941599687 0 0 0
9997 1 2 0 15.47395088477452 22.68104064435133 -2.1267355789085554 0 0 0
10003 1 2 0 21.762937050409864 23.252638546124167 -2.0717969160234473 0 0 0
7088 1 1 0 26.986660418521147 22.87233185255354 -1.6039809278681503 0 0 0
10032 1 2 0 26.212083238435937 24.2037244282935 -2.1280076794871925 0 0 0
10030 1 2 0 28.495050075356758 22.506661405737038 -2.1276414326089084 0 0 0
7087 1 1 0 30.0472935527813 22.343754961732458 -1.6101454293024104 0 0 0
10031 1 2 0 30.990106790141606 23.568610409163274 -2.1305519864570686 0 0 0
10034 1 2 0 35.868826151099995 23.91927677581909 -2.0829766324465893 0 0 0
7090 1 1 0 37.194834409492124 23.06675913034628 -1.6264184587608879 0 0 0
10035 1 2 0 38.62065760447435 23.784926874569553 -2.049313812841662 0 0 0
10039 1 2 0 41.35139922262279 23.758731217473336 -2.1405316481552727 0 0 0
7093 1 1 0 42.727751651467095 22.97519059485188 -1.630244815131797 0 0 0
10040 1 2 0 44.08904474726724 23.81910801636201 -2.087143218373472 0 0 0
10044 1 2 0 46.57700773459541 23.039815957304175 -1.9314198898565036 0 0 0
7098 1 1 0 45.60172206405706 24.300668355237356 -1.594628915618044 0 0 0
7097 1 1 0 47.99048341306209 22.320628271031946 -1.6129017783446375 0 0 0
10045 1 2 0 49.32984495236311 23.063924982833903 -2.133982328842254 0 0 0
7100 1 1 0 50.805297192396644 23.46961657829454 -1.6099943970426962 0 0 0
10047 1 2 0 52.0614039597161 22.602096965669382 -2.164589051646671 0 0 0
10048 1 2 0 54.7268407519997 22.789403112776643 -1.9903278993014304 0 0 0
7102 1 1 0 55.773553600346794 23.972001468454113 -1.5928721084723345 0 0 0
10050 1 2 0 57.15816379268643 23.18797315855608 -2.109382764285689 0 0 0
7101 1 1 0 58.48368694047302 22.286647276488612 -1.6333861571057244 0 0 0
10051 1 2 0 59.7257886898287 23.230626733749325 -2.150918572314832 0 0 0
7105 1 1 0 61.053951362067245 24.00536705895386 -1.6072555117152971 0 0 0
10054 1 2 0 62.316603356772525 23.073944082236547 -1.994083530543333 0 0 0
7104 1 1 0 63.823563048693636 22.676726486008164 -1.5962122790598736 0 0 0
10055 1 2 0 64.99908112782505 23.62988493939403 -2.1856461488802297 0 0 0
10060 1 2 0 67.73008895989372 24.192586117891192 -2.0282825047767368 0 0 0
7107 1 1 0 70.9559047797147 22.063163128269718 -1.592330282258269 0 0 0
10058 1 2 0 70.27067921430687 23.454146528344932 -2.0924118862283723 0 0 0
10059 1 2 0 72.44227769851696 22.706432540179076 -2.082883071148634 0 0 0
7112 1 1 0 73.97892756378468 23.202765470988897 -1.6283581941773184 0 0 0
10067 1 2 0 79.9083105465263 22.588354851358442 -2.1484662428903367 0 0 0
7116 1 1 0 81.00360272115452 23.74266933469228 -1.6244022414100603 0 0 0
10069 1 2 0 82.54762990020176 23.306677230457193 -1.978062257384804 0 0 0
7115 1 1 0 83.72293308595472 22.227941595357372 -1.616371185261959 0 0 0
10016 1 2 0 85.27609527862622 22.235935857630007 -2.1626474393330826 0 0 0
7078 1 1 0 86.84526482192895 22.260828191124894 -1.6510651837334034 0 0 0
10015 1 2 0 87.4352220547642 23.710681889563176 -2.1162094231470006 0 0 0
10017 1 2 0 92.63382438262042 23.537908015521257 -2.1297214425613267 0 0 0
7079 1 1 0 93.90754745403702 22.53351322285953 -1.631382358861424 0 0 0
10018 1 2 0 95.41257527345232 23.104878411795656 -2.04984842360599 0 0 0
7121 1 1 0 96.8064748910414 23.889150940637165 -1.6172387279889622 0 0 0
9573 1 2 0 98.25197652836485 23.20057990032376 -2.0284836129476442 0 0 0
6789 1 1 0 99.66197392568056 22.428912690687667 -1.6186492898504163 0 0 0
9569 1 2 0 101.03936721182023 23.319014519598873 -2.0703052794356824 0 0 0
6787 1 1 0 102.34190635086301 24.31572241151703 -1.6359445248023508 0 0 0
9562 1 2 0 6.049758656265219 24.838882725387773 -2.108511589842367 0 0 0
6811 1 1 0 5.571020294966799 26.321107797187842 -1.6341400837213687 1 0 0
6830 1 1 0 11.747865499665009 24.753101448358965 -1.6231404007287298 0 0 0
9632 1 2 0 11.261803181378252 26.26163071950073 -2.0687606554928446 0 0 0
10081 1 2 0 16.011454584242173 25.365796363621765 -2.117488465348863 0 0 0
7128 1 1 0 16.956546699064084 26.648563563629747 -1.6230214448130773 0 0 0
10087 1 2 0 18.53315198142258 26.873168901039026 -2.10528268004507 0 0 0
10085 1 2 0 21.072266242010596 26.024208573319378 -2.152750263099983 0 0 0
7127 1 1 0 22.073036320940634 24.81210213992442 -1.6269083319171214 0 0 0
10086 1 2 0 23.60604016469892 25.152539775385268 -2.0888115686241573 0 0 0
7130 1 1 0 25.15755548482671 25.33713248147858 -1.6307809429504 0 0 0
10090 1 2 0 25.891767259088716 26.674783948572955 -2.1691848841678274 0 0 0
10037 1 2 0 30.671229118317257 26.153252439611304 -2.0552208508648873 0 0 0
7091 1 1 0 31.70123762899972 24.950010895133243 -1.6351858774753665 0 0 0
10036 1 2 0 33.258809210183436 25.03992537879211 -2.1652618688631486 0 0 0
7092 1 1 0 34.81296790622353 25.08377102335789 -1.6198846537102196 0 0 0
10038 1 2 0 35.52253791325182 26.480613087174593 -2.0594662814683034 0 0 0
7094 1 1 0 40.00494917483933 24.590029269540302 -1.6317191974976961 0 0 0
10041 1 2 0 39.94371862277577 26.18627950658376 -2.0877758999304645 0 0 0
10046 1 2 0 46.52661369863514 25.57609642976048 -2.1224931739127997 0 0 0
7152 1 1 0 47.598607399854025 26.753853262909242 -1.6571680175776782 0 0 0
10124 1 2 0 49.19657504661972 26.72315167895361 -2.1133576249641175 0 0 0
10049 1 2 0 51.040670166902146 25.015782848883724 -1.9627360353369614 0 0 0
7156 1 1 0 50.76208338709294 26.57233795801549 -1.5672160024486868 0 0 0
10130 1 2 0 52.34757071316866 26.705481532390998 -2.096142120445584 0 0 0
7157 1 1 0 53.9421189608046 26.57664700470181 -1.6451090272031028 0 0 0
10052 1 2 0 54.951906177714875 25.33376439605673 -2.1102736634351342 0 0 0