LAMMPS data file via write_data, version 2 Aug 2023, timestep = 273, units = metal

15132 atoms
2 atom types

7.413456051785482 193.54603013970336 xlo xhi
7.16283862688747 168.14475503310464 ylo yhi
-100 100 zlo zhi

Masses

1 28.085
2 15.999

Atoms # full

9037 1 2 0 9.657685041209923 7.714388057922432 -2.248333665830292 0 0 0
6426 1 1 0 9.755171271324034 9.234549687443543 -1.6373457582853281 0 0 0
9029 1 2 0 8.228458220707708 9.904431093683927 -2.143093652292881 0 0 0
9038 1 2 0 11.391449395389634 9.494420069430848 -2.089010392089822 0 0 0
6431 1 1 0 12.868148675530774 12.653306641391476 -1.6468979850176646 0 0 0
12736 1 2 0 12.768968879205188 12.679047205773378 -1.0358263713001351e-05 0 0 0
12731 1 2 0 9.711639238587939 9.452265585000628 -1.2393058304960977e-05 0 0 0
12737 1 2 0 13.05575304426998 9.332042164844758 -1.9313439138898337e-05 0 0 0
6432 1 1 0 13.057393887078561 9.568089525206986 -1.6348466873459264 0 0 0
9047 1 2 0 14.464121732213503 8.642127981137833 -2.135680929001443 0 0 0
6781 1 1 0 15.933183440870062 7.813126803406575 -1.6478096729896774 0 0 0
9578 1 2 0 17.51403958174118 8.34364533831165 -2.0998659929419223 0 0 0
9045 1 2 0 13.335412578373692 11.130766554789677 -2.1469265212576913 0 0 0
6779 1 1 0 18.289153760482936 12.277969903182067 -1.6476987227950795 0 0 0
13086 1 2 0 15.881166330423422 7.888057022954952 -2.6608003133559e-05 0 0 0
13084 1 2 0 18.222031251411252 12.282443457057779 -1.0464588209329551e-05 0 0 0
6780 1 1 0 18.966222072497313 9.164521287394889 -1.6453530494499358 0 0 0
9576 1 2 0 18.555921209856958 10.70889052543049 -2.1681298710580093 0 0 0
13085 1 2 0 19.04748339690387 9.068692176561699 -2.0410636124839137e-05 0 0 0
9579 1 2 0 20.616379838583306 8.7186770296931 -2.122365681808469 0 0 0
6787 1 1 0 22.268962504952732 8.302987484773363 -1.6451780109180545 0 0 0
9588 1 2 0 23.696565685071377 9.154295973623185 -2.1048384296033382 0 0 0
13092 1 2 0 22.191960360836337 8.403579821625762 -1.641973292336063e-05 0 0 0
9586 1 2 0 24.688640591726877 11.548780016129122 -2.221267815572829 0 0 0
13090 1 2 0 23.906045587823098 12.884694189930853 -4.243162484611416e-06 0 0 0
6785 1 1 0 23.93738529034936 12.90148058839113 -1.6489436529984982 0 0 0
9606 1 2 0 28.737936786146488 8.180267232070895 -2.219886789089993 0 0 0
6786 1 1 0 25.09800198562855 10.049719891273435 -1.64306790504857 0 0 0
9589 1 2 0 26.756596231319016 9.905830110290891 -2.1321359789588525 0 0 0
6796 1 1 0 28.408368575322157 9.678796005723903 -1.6353085063094288 0 0 0
13101 1 2 0 28.330683703327193 9.906797390480348 -1.0826176853987338e-05 0 0 0
13091 1 2 0 25.16513071809183 9.897622527645712 -1.2919034303012068e-05 0 0 0
9604 1 2 0 29.90818450178066 10.464133345803628 -2.1019094026586393 0 0 0
6795 1 1 0 31.516681107840363 10.603304319125002 -1.5119522938547851 0 0 0
9605 1 2 0 32.989059843884625 10.077525012743562 -2.2302974238477766 0 0 0
6798 1 1 0 34.59216012244868 10.22124002116208 -1.635545256841369 0 0 0
9596 1 2 0 31.983462406942262 12.176100624572747 -1.441925012105605 0 0 0
13103 1 2 0 34.457401893034685 10.478961244711668 -2.457506668923611e-06 0 0 0
13100 1 2 0 31.46913926935676 9.888291900485982 -3.9813961754391585e-06 0 0 0
9608 1 2 0 35.25992206811418 8.763039232689191 -2.064292989913465 0 0 0
6799 1 1 0 35.012892341651344 7.188714338832163 -1.6340158837070526 0 0 0
9609 1 2 0 35.81413594485833 11.30847245987445 -2.1688305583113694 0 0 0
9618 1 2 0 40.123614918661495 8.86798139140674 -2.1954670550903828 0 0 0
6802 1 1 0 37.33048767704968 11.88516443944027 -1.6449453312261817 0 0 0
9616 1 2 0 38.6996505158586 11.080704039298302 -2.2064561413559303 0 0 0
6804 1 1 0 40.140448135707764 10.438066723528037 -1.6492642193212252 0 0 0
13107 1 2 0 37.30627754565483 11.784190853067559 -2.1895388181447837e-06 0 0 0
13109 1 2 0 40.17180864448341 10.491661108114721 -3.5956553709580767e-06 0 0 0
6805 1 1 0 40.388733569147476 7.32220849484365 -1.6474630198195894 0 0 0
9619 1 2 0 41.55394369649195 11.189070088230357 -2.19808631677725 0 0 0
13110 1 2 0 40.39803588192901 7.268313002360295 -2.5549792631500044e-06 0 0 0
9633 1 2 0 44.41714804104818 8.240602441016955 -2.2131087869680326 0 0 0
6813 1 1 0 45.294369352094215 9.530679769134547 -1.6460425934524967 0 0 0
6807 1 1 0 43.06337371346038 11.688928598340489 -1.6482008628989946 0 0 0
9624 1 2 0 44.38653223343902 10.82008915993722 -2.1815528748856883 0 0 0
13118 1 2 0 45.369008626453564 9.512603646483605 -3.360116097031176e-06 0 0 0
13112 1 2 0 43.020834408943216 11.649840108236468 -3.4850818626756802e-06 0 0 0
9634 1 2 0 46.88459604588 9.548602427938093 -2.20044872151844 0 0 0
9651 1 2 0 49.68943824558265 8.946085866048284 -2.1995162318137447 0 0 0
6823 1 1 0 48.43621381110014 9.920317779413224 -1.6493834575892232 0 0 0
9649 1 2 0 48.7921751662581 11.441300988904922 -2.212778237052207 0 0 0
6825 1 1 0 50.91821600283478 7.947693161141844 -1.6443470321928004 0 0 0
6822 1 1 0 49.36719021939746 12.886427023858326 -1.6480110404130766 0 0 0
13128 1 2 0 48.418465379621026 9.865613464154103 -6.006086700494126e-07 0 0 0
9652 1 2 0 52.488910817973704 8.115143215039378 -2.2033737694646054 0 0 0
9639 1 2 0 53.50412644444845 12.65674986197955 -2.2478669786291188 0 0 0
6824 1 1 0 53.99439964900951 8.578303232816891 -1.6484822574327056 0 0 0
9653 1 2 0 55.37314845335285 7.817939993897258 -2.2246990398588538 0 0 0
9641 1 2 0 54.097591014215666 10.096622419728712 -2.267119710990821 0 0 0
6817 1 1 0 54.545450613016044 11.53707321864484 -1.647573919913401 0 0 0
9640 1 2 0 56.07975275351381 11.789057879838326 -2.207749718918686 0 0 0
6830 1 1 0 56.830963916862764 7.2472049721165135 -1.6418730323642572 0 0 0
9660 1 2 0 58.300536823897374 7.830113996749685 -2.2008515651185734 0 0 0
9645 1 2 0 58.60252466632886 12.619693690237888 -2.244006047865016 0 0 0
6829 1 1 0 59.87287496050885 7.983947675744526 -1.6475674805840153 0 0 0
9658 1 2 0 60.25724922658335 9.490186873808364 -2.2202957437552873 0 0 0
9656 1 2 0 61.14082970540963 12.018757782657215 -2.237940917872143 0 0 0
6828 1 1 0 61.41402031814202 10.5035070731043 -1.6480967858337803 0 0 0
13134 1 2 0 59.832293724580055 7.833086062034349 -4.0046898977975336e-07 0 0 0
9659 1 2 0 62.91813213675706 10.071201269128263 -2.2048849885564565 0 0 0
6838 1 1 0 64.26973265291204 10.841095517037326 -1.6470671554376057 0 0 0
9676 1 2 0 65.57141205260905 9.948576244771566 -2.112076736555742 0 0 0
9675 1 2 0 64.49898030190778 12.335641026743987 -2.3470027809514966 0 0 0
6841 1 1 0 67.10530557881444 10.369898072459486 -1.636972863570592 0 0 0
9679 1 2 0 67.61012238385433 11.811542357236549 -2.257572232703682 0 0 0
6844 1 1 0 67.88887830638603 7.599152048017765 -1.6614817284693548 0 0 0
9680 1 2 0 68.0377198457896 9.151611134256067 -2.2147708487067264 0 0 0
9689 1 2 0 71.24543645536299 10.501913568871766 -2.276705781562846 0 0 0
6848 1 1 0 71.3826743564685 12.044482937733353 -1.6585531650244805 0 0 0
9682 1 2 0 70.10001613619714 12.894190439782296 -2.2332606549646723 0 0 0
9691 1 2 0 72.01941280308513 7.851133223559251 -2.3054396937800545 0 0 0
6847 1 1 0 72.02164906657119 9.278204100962997 -1.4875770315105585 0 0 0
9692 1 2 0 72.75776205965956 12.748903016046947 -2.2248449176292557 0 0 0
13153 1 2 0 71.39930943806851 12.007234718494875 -2.2212080541149354e-06 0 0 0
9694 1 2 0 75.83127932739923 8.40155692382848 -2.2686847181869045 0 0 0
9690 1 2 0 73.60042814917504 9.682325260418587 -1.3296200340675295 0 0 0
6849 1 1 0 75.22070072816135 9.740526672255243 -1.4933093129028951 0 0 0
9693 1 2 0 75.47246490051813 11.14003489917433 -2.311270889094369 0 0 0
6850 1 1 0 76.11026457132337 12.529471642622866 -1.6521937944839218 0 0 0
13154 1 2 0 75.94575404782644 9.808622176450505 -4.962622425353374e-07 0 0 0
9696 1 2 0 77.68033048394082 12.362793792824402 -2.1900171442621548 0 0 0
9704 1 2 0 81.61788927620464 8.236504833160827 -2.17844766800687 0 0 0
9702 1 2 0 80.05211326509209 10.637985502749158 -2.1867017485145777 0 0 0
6855 1 1 0 81.45739159179213 9.84693078164454 -1.6513161858180732 0 0 0
9703 1 2 0 82.75152200503884 10.774515429512523 -2.1920751573231123 0 0 0
6856 1 1 0 79.21794925553824 12.006046980753895 -1.6458857170793486 0 0 0
6857 1 1 0 83.83885831516795 11.923079515095766 -1.6487905406085752 0 0 0
6867 1 1 0 87.3268624836679 8.022397144172093 -1.647310185782534 0 0 0
9707 1 2 0 85.35898459446278 11.500499728710897 -2.1758970049135895 0 0 0
6863 1 1 0 86.92184625740128 11.233837413384052 -1.6480530603356607 0 0 0
9717 1 2 0 87.31791530986106 9.647631941690488 -2.1703321632768398 0 0 0
9716 1 2 0 87.83376758017437 12.585986094884742 -2.1756377033989205 0 0 0
13172 1 2 0 87.35343225508294 8.100648206105529 -1.4538491304868477e-06 0 0 0
13168 1 2 0 87.02202208638852 11.209879883290695 -2.2572162385629546e-06 0 0 0
9729 1 2 0 93.08298726317818 8.41288562125601 -2.2708305183115316 0 0 0
6870 1 1 0 93.5567224168443 9.815473797606558 -1.4938794539897753 0 0 0
9726 1 2 0 93.3877223307815 11.287513672925815 -2.2675703732204138 0 0 0
6869 1 1 0 93.71302095405778 12.8197772687128 -1.6489936564286276 0 0 0
13174 1 2 0 93.83235211067597 12.714499517716689 -4.84178202249062e-07 0 0 0
9730 1 2 0 95.17716227357455 9.719170786661595 -1.292133489967589 0 0 0
6878 1 1 0 96.59869847609126 8.96656272760888 -1.5012863809328512 0 0 0
9740 1 2 0 96.3955480525881 7.5501609846272295 -2.3417502063609823 0 0 0
9739 1 2 0 97.48689022631315 10.055175807829121 -2.3639436258791013 0 0 0
6876 1 1 0 98.10432412502114 11.417150203341897 -1.6357246844040136 0 0 0
8867 1 2 0 99.68855150986863 11.309719150671054 -2.0365644739545155 0 0 0
9738 1 2 0 97.5771665722293 12.8499643686813 -2.2503018165104067 0 0 0
13183 1 2 0 97.29697454893869 8.701291385546856 9.674846617662062e-08 0 0 0
13181 1 2 0 97.83018659354168 11.429276524753714 -1.9600937989715005e-07 0 0 0
9031 1 2 0 8.574995152907151 13.265763440717176 -2.1903765950882867 0 0 0
9043 1 2 0 11.3989967966661 13.258372954133849 -2.235241528415779 0 0 0
6429 1 1 0 9.989177509169883 13.96367942997052 -1.6415787734581486 0 0 0
9042 1 2 0 9.759615132845969 15.533252584040705 -2.1506042201661426 0 0 0
6430 1 1 0 8.679203239643641 16.704071044600646 -1.6476093798822176 0 0 0
12735 1 2 0 8.646076223537387 16.673855092793897 -4.005368685259752e-06 0 0 0
12734 1 2 0 10.095534481943142 13.868961823253741 -1.3037306567929677e-05 0 0 0
9044 1 2 0 9.369091141987484 18.0284778819863 -2.2971472108298365 0 0 0
9046 1 2 0 14.149485633479665 13.556515859767481 -2.195661041141321 0 0 0
6453 1 1 0 15.635106388008289 14.070731658909061 -1.6486853168038675 0 0 0
9079 1 2 0 16.911334476970296 13.097688193556074 -2.189611506512252 0 0 0
9078 1 2 0 15.661619847745227 15.654230493389822 -2.199096507521796 0 0 0
9076 1 2 0 13.958423711350544 17.942512293167027 -2.1997369635703308 0 0 0
6454 1 1 0 15.364955496194039 17.20356341231521 -1.6489274844512605 0 0 0
12758 1 2 0 15.697337247820716 14.051927745968287 -1.0996453402606278e-05 0 0 0
9080 1 2 0 16.606126381017667 18.159462902186984 -2.2079445453769657 0 0 0
6784 1 1 0 18.129557943897524 18.47155424576755 -1.648469694024119 0 0 0
12759 1 2 0 15.320246254843223 17.161985703921083 -5.084021425446072e-06 0 0 0
13089 1 2 0 18.11639085657189 18.526069076715242 -2.0268148172277435e-06 0 0 0
9577 1 2 0 19.629848176400223 13.057525550072222 -2.235179290993935 0 0 0
6782 1 1 0 20.999593933197144 13.76479165650081 -1.6491272855177934 0 0 0
9582 1 2 0 22.382474170637476 13.035038396062038 -2.219325007886292 0 0 0
9581 1 2 0 20.96687039147092 15.298851621408899 -2.2502638615589587 0 0 0
9583 1 2 0 19.127438938079013 17.268415576444887 -2.1917339574227004 0 0 0
6783 1 1 0 20.61157317782579 16.783994387586198 -1.648105197120558 0 0 0
9584 1 2 0 21.751581427490592 17.78276362805506 -2.2861358002974743 0 0 0
13087 1 2 0 20.995439407731325 13.73503131969058 -5.126983959044141e-06 0 0 0
13088 1 2 0 20.646286520137252 16.767614881893063 -2.5586347501271257e-06 0 0 0
9744 1 2 0 24.370186875804542 18.27206453906191 -2.235063900229262 0 0 0
9587 1 2 0 24.852725952550664 14.15750001225436 -2.2321471999348494 0 0 0
9607 1 2 0 26.253605609108103 16.433914375467157 -2.2460370725520735 0 0 0
6797 1 1 0 26.21234013906771 14.891745332356043 -1.6522539487652017 0 0 0
9598 1 2 0 27.602020366212457 14.132726779302208 -2.201459825419211 0 0 0
6791 1 1 0 29.0685047523219 14.684013900294316 -1.6453329303233222 0 0 0
6881 1 1 0 25.86595573176296 17.924112950911177 -1.654491173522345 0 0 0
13186 1 2 0 25.9372318829648 17.933239299950003 -4.8668500894539474e-06 0 0 0
13102 1 2 0 26.156947423290635 14.903837712569949 -2.4922448513007198e-06 0 0 0
9597 1 2 0 29.222248481387933 16.244701679030243 -2.190790662818906 0 0 0
13096 1 2 0 29.03988425654311 14.470913154815827 -4.6452183256569e-06 0 0 0
9594 1 2 0 30.409726914028962 13.985385839844815 -2.3204146453529386 0 0 0
6793 1 1 0 30.25175678624594 17.311002641708235 -1.4707004253702407 0 0 0
9602 1 2 0 29.38542625010282 18.652497017634165 -1.2829947856425261 0 0 0
6790 1 1 0 31.85718404842715 13.788514382102505 -1.5212562945523456 0 0 0
9595 1 2 0 33.20314174858438 14.42600512473892 -2.2785862544336917 0 0 0
6792 1 1 0 34.413460834318414 15.308398042138016 -1.5299021946085278 0 0 0
9601 1 2 0 31.619249559582727 17.670123262998974 -2.342847100719841 0 0 0
9599 1 2 0 34.04391267595375 16.902985547608086 -1.5139606052594847 0 0 0
13095 1 2 0 31.795247471090082 14.467921372015496 -4.59510581288005e-06 0 0 0
6794 1 1 0 32.99261164051159 18.150910087153544 -1.53987399657684 0 0 0
13097 1 2 0 34.60951208069904 14.681027882486969 -3.8808736818684655e-06 0 0 0
13099 1 2 0 32.583509624634324 18.646823396763246 -3.0800129375954734e-06 0 0 0
13098 1 2 0 30.722403338075992 16.667688082085913 -2.8354824775493484e-06 0 0 0
9600 1 2 0 35.88592889453005 15.307596118315457 -2.2892184537024503 0 0 0
9615 1 2 0 37.67488893233723 13.453390690629348 -2.1275049254309 0 0 0
6803 1 1 0 37.40067133238315 15.029408723498067 -1.649713902573924 0 0 0
9617 1 2 0 38.468907366675076 16.208525177500253 -2.223441097620221 0 0 0
6810 1 1 0 39.648892923426565 17.263775387786172 -1.6428120918344167 0 0 0
13108 1 2 0 37.46086643735669 15.145427475929385 -5.237060908351609e-06 0 0 0
13115 1 2 0 39.48890612821534 17.306853685985487 -1.967732650102731e-06 0 0 0
9627 1 2 0 41.10775311890783 16.664077239915322 -2.1604689792283303 0 0 0
9623 1 2 0 43.4120809432006 13.218620329093952 -2.2094096868289985 0 0 0
9625 1 2 0 43.58844528599598 15.871788289140445 -2.2611737758894503 0 0 0
6808 1 1 0 44.294631566136225 14.510688676302879 -1.649310144505251 0 0 0
6809 1 1 0 42.631141826102194 17.059123687982726 -1.6480498566937596 0 0 0
9628 1 2 0 43.164109866709325 18.552347193691215 -2.1951997844972184 0 0 0
13113 1 2 0 44.29069883484038 14.491882673792567 -2.9447758908161943e-06 0 0 0
13114 1 2 0 42.67291019029767 17.079349576077842 -2.11068406282875e-06 0 0 0
9626 1 2 0 45.85616565438098 14.586080964315121 -2.2063463630140174 0 0 0
6826 1 1 0 47.31358697898521 15.166018662970217 -1.6504439699060833 0 0 0
9655 1 2 0 47.76702265942829 16.675460004248592 -2.2077735303339057 0 0 0
9751 1 2 0 45.81821878098883 18.377498422087687 -2.1116830338668353 0 0 0
6886 1 1 0 47.3910781581172 18.199656557234366 -1.6394460727326776 0 0 0
13131 1 2 0 47.2977143457423 15.179225396832287 -2.4990327874558966e-06 0 0 0
9650 1 2 0 48.4291089002542 14.105101170737973 -2.242376310251188 0 0 0
9643 1 2 0 50.886512514433825 13.16162213564981 -2.2451310767098867 0 0 0
6818 1 1 0 52.34166977167566 13.657958968617383 -1.6477221210694797 0 0 0
9642 1 2 0 52.72212783531199 15.157062908133367 -2.2251471575894106 0 0 0
6821 1 1 0 53.59773493200008 16.43533449655898 -1.6500810234977492 0 0 0
9648 1 2 0 52.87240690712597 17.75285710535295 -2.303200144600102 0 0 0
13126 1 2 0 53.5819298958849 16.412642049761818 -3.814147460041013e-07 0 0 0
9646 1 2 0 55.15428923463249 16.547491085303093 -2.2015281154182746 0 0 0
9644 1 2 0 56.614508320891055 14.383817716783932 -2.258834207801431 0 0 0
6820 1 1 0 56.56980124857972 15.904784320020621 -1.649419316446392 0 0 0
13125 1 2 0 56.59379086201983 15.897947458676631 3.618359519358384e-07 0 0 0
6819 1 1 0 57.107383069590725 12.942019124166759 -1.645135013566122 0 0 0
9647 1 2 0 57.89650644841916 16.692925888068746 -2.259327437509149 0 0 0
6836 1 1 0 58.46566524744066 18.11468791646774 -1.6410240463903927 0 0 0
6827 1 1 0 60.059591775754996 13.117370553060512 -1.658732680611487 0 0 0
9657 1 2 0 60.449382930455464 14.635711589838174 -2.243408725891038 0 0 0
6834 1 1 0 61.7605833272586 15.34389595780966 -1.5097339607462785 0 0 0
9672 1 2 0 59.980265224398494 18.482815121269383 -2.2273813826602282 0 0 0
13139 1 2 0 61.25979204301877 15.861868441793508 -3.359122018629804e-07 0 0 0
9669 1 2 0 62.89070866070058 14.148699601708406 -1.4128367023887323 0 0 0
6839 1 1 0 64.47517306189644 13.754589912177346 -1.5077890354559722 0 0 0
9668 1 2 0 62.44904207450904 16.584012681613483 -2.3625933696624815 0 0 0
9677 1 2 0 65.39142983465715 14.947196552783812 -2.20585039460388 0 0 0
6835 1 1 0 63.39995365949206 17.673954809609608 -1.536996698009673 0 0 0
9671 1 2 0 64.80570402909234 18.049140459176073 -2.2972898940581143 0 0 0
13140 1 2 0 63.73040512534902 17.087091629735088 -8.682254461635556e-07 0 0 0
6843 1 1 0 66.88628371566087 15.44201696461037 -1.6434195611514737 0 0 0
9683 1 2 0 67.21807954401588 16.965268678148455 -2.192421860002072 0 0 0
6899 1 1 0 66.32060639374774 18.252614777319685 -1.6525690714262595 0 0 0
13204 1 2 0 66.28845334345739 18.363228048494115 -2.406235860285831e-06 0 0 0
13148 1 2 0 66.96548143471506 15.486492912643294 -4.314384918481518e-07 0 0 0
9681 1 2 0 68.04315967402773 14.454633974896412 -2.260204396959046 0 0 0
6842 1 1 0 68.56900071225257 13.018590270212718 -1.6500477311169863 0 0 0
9697 1 2 0 72.51498467591185 15.34642705907476 -2.0854249203562785 0 0 0
6902 1 1 0 72.68546952749247 16.965185534169315 -1.6558551218766595 0 0 0
9777 1 2 0 71.60762217604173 18.15133736067413 -2.1930666250427597 0 0 0
13207 1 2 0 72.68266219004703 17.12248322741577 -6.7496093380482e-07 0 0 0
9695 1 2 0 75.15111154768628 13.821540872852465 -2.1763890678173707 0 0 0
6851 1 1 0 73.55308390769201 14.08526523721603 -1.6456202349741518 0 0 0
9776 1 2 0 74.18831790396567 17.13000526772948 -2.3835038847303545 0 0 0
6903 1 1 0 75.45503700450112 17.669112348011485 -1.4833786372422455 0 0 0
9774 1 2 0 76.89321090199601 17.393124819314824 -2.241678024599405 0 0 0
13156 1 2 0 73.63056937857306 14.126401036055533 -2.8468302083570535e-06 0 0 0
6901 1 1 0 78.45583711010356 17.454618843850014 -1.6575808112070163 0 0 0
9705 1 2 0 79.991780309704 13.366864487023765 -2.2307984184658607 0 0 0
9710 1 2 0 79.22573819154833 16.127577542342106 -2.290449572294283 0 0 0
6859 1 1 0 79.95445195557284 14.853827661715343 -1.496520503162778 0 0 0
9708 1 2 0 81.52696344402321 15.23214662817147 -1.3433396658337506 0 0 0
9706 1 2 0 83.488202117483 13.463229559347848 -2.2311080854430236 0 0 0
6858 1 1 0 83.12644502985715 14.928652042395155 -1.513952898865678 0 0 0
9709 1 2 0 83.5330276544727 16.304775134828898 -2.376038682397928 0 0 0
13163 1 2 0 83.8433874108648 14.916263374061582 -6.664930385771916e-07 0 0 0
6865 1 1 0 83.94046879845573 17.70630570277376 -1.558031430594776 0 0 0
6864 1 1 0 88.37719246127487 14.118303866314362 -1.6475820965327856 0 0 0
9718 1 2 0 87.38409061130486 15.39675369363654 -2.1745155086760817 0 0 0
9720 1 2 0 85.57758767035337 17.54397291791222 -1.550978348956634 0 0 0
6866 1 1 0 87.11012575229498 16.937827532144173 -1.544178300564548 0 0 0
9722 1 2 0 87.86572428579504 18.206711057288604 -2.317577487212654 0 0 0
13171 1 2 0 87.70130976169061 16.816438685725245 -3.205216275048626e-06 0 0 0
13169 1 2 0 88.3931238823636 14.004064128953502 -6.09141483910708e-07 0 0 0
9719 1 2 0 89.91764929594954 14.549932629575824 -2.185743618815148 0 0 0
9727 1 2 0 92.39962517992342 13.676980719024847 -2.157842130912844 0 0 0
6871 1 1 0 91.46193758847392 14.933958300884465 -1.6412063231190734 0 0 0
9731 1 2 0 92.23178207066661 16.314219463155066 -2.2203431853316595 0 0 0
6912 1 1 0 92.99341881714095 17.694784528914216 -1.6501800863447358 0 0 0
9793 1 2 0 94.58586991665416 18.01234006314489 -2.1427994367955563 0 0 0
13176 1 2 0 91.39059552729329 15.063390031607568 -3.8587709552239704e-07 0 0 0
13217 1 2 0 92.97416976442179 17.62309221533444 -3.7805566441693035e-08 0 0 0
9728 1 2 0 95.0647548346411 13.651277879952307 -2.1981217477329795 0 0 0
6877 1 1 0 96.59595029944974 14.056112017414907 -1.6512531795685634 0 0 0
9139 1 2 0 97.23855728110279 15.517653938393352 -2.187981171726409 0 0 0
6489 1 1 0 98.62073686453579 16.328471965655165 -1.6440665602357303 0 0 0
8863 1 2 0 99.91253243420128 15.421402990000681 -2.1610525963287617 0 0 0
9138 1 2 0 98.94622326588737 17.881495783382046 -2.180791030029298 0 0 0
13182 1 2 0 96.56206893982285 14.095477936209647 -3.9366613455922053e-07 0 0 0
6451 1 1 0 9.990500862691677 19.397194976124656 -1.6492083752249145 0 0 0
9075 1 2 0 8.939901239539271 20.53676747264898 -2.2339363584176755 0 0 0
6480 1 1 0 7.867273195537386 21.65455770462257 -1.6474595004264578 1 0 0
9074 1 2 0 11.55188265874056 19.4038525147908 -2.2164480363591785 0 0 0
9123 1 2 0 8.508551343376318 23.046341561983052 -2.243849619344533 0 0 0
9129 1 2 0 12.28147542051872 22.9468827386155 -2.098130339036467 0 0 0
12756 1 2 0 10.020120622766377 19.45155577648932 -1.8149051087407183e-06 0 0 0
12785 1 2 0 7.854399854014531 21.59996471490409 -1.0510393922901581e-07 1 0 0
6452 1 1 0 13.110889866238727 19.279282436750673 -1.6499879679987544 0 0 0
12757 1 2 0 13.092106803538321 19.225552327007883 -1.8207535989445711e-06 0 0 0
12790 1 2 0 13.802378863174077 22.108599234215422 -4.417690103437512e-06 0 0 0
9077 1 2 0 13.847479380150745 20.661429170118545 -2.2296355269525083 0 0 0
6485 1 1 0 13.694194276835848 22.201025314189796 -1.643169574595852 0 0 0
9131 1 2 0 14.847614392366767 23.227124754245757 -2.247584865064056 0 0 0
9233 1 2 0 17.110919865758206 22.027618660378355 -2.120485667838335 0 0 0
6551 1 1 0 16.37003928462491 23.417079716262094 -1.6403776477660783 0 0 0
12856 1 2 0 16.355988695572172 23.545717955194757 -2.6969645195020054e-06 0 0 0
6918 1 1 0 18.575346539901496 21.44796231464762 -1.6386951980824809 0 0 0
9585 1 2 0 18.690320992727308 19.91720116192792 -2.251396836341196 0 0 0
13223 1 2 0 18.756917033862813 21.399024260540205 -3.8095682733780676e-06 0 0 0
6882 1 1 0 22.91022555220879 18.74732082246607 -1.6482646715643994 0 0 0
9746 1 2 0 22.580388435440227 20.2514676109607 -2.242370046995433 0 0 0
9801 1 2 0 19.653998456949413 22.516041252470767 -2.2965896209617234 0 0 0
6922 1 1 0 23.155922692786564 21.67367102931848 -1.6451612260281157 0 0 0
9807 1 2 0 22.232582827215616 22.91570344242025 -2.1827817256065174 0 0 0
6923 1 1 0 20.792944273472276 23.515747160332197 -1.651804324832368 0 0 0
13187 1 2 0 22.896806631062532 18.669765576045656 -3.184536124698584e-06 0 0 0
13227 1 2 0 23.107139251431985 21.56098887613832 -2.0780618875445007e-06 0 0 0
13228 1 2 0 20.684419923929298 23.541440953404642 -2.272075810613047e-06 0 0 0
9808 1 2 0 24.668196922969233 21.950887919811137 -2.2856512984867066 0 0 0
9745 1 2 0 26.87899318600442 19.096202042869233 -2.271721518599362 0 0 0
6883 1 1 0 28.18444070932142 19.74397403180112 -1.496268407170173 0 0 0
9747 1 2 0 29.043738341879962 20.846366802687932 -2.385466389030364 0 0 0
9858 1 2 0 27.24838600630599 22.6414896389994 -2.0565478279480383 0 0 0
6957 1 1 0 25.70014646680766 23.04805375685386 -1.6187064268545797 0 0 0
6958 1 1 0 28.298071797368536 23.82738430096209 -1.520885398338936 0 0 0
13262 1 2 0 25.324496335617766 23.061528277592252 -3.6203452352662527e-06 0 0 0
13188 1 2 0 27.70481328724242 20.341787096683543 -1.7396927076503705e-06 0 0 0
9856 1 2 0 29.82433984525255 23.229401089931674 -1.4649532401428074 0 0 0
6956 1 1 0 30.22412632761036 21.628984331896806 -1.5347143849665426 0 0 0
6926 1 1 0 34.72773566101461 20.504027715632276 -1.6199057099710972 0 0 0
9603 1 2 0 33.74986619756691 19.385940711661153 -2.3432769908124667 0 0 0
9857 1 2 0 31.682850396522674 21.68647372282315 -2.3164593537302918 0 0 0
6961 1 1 0 32.77403876513656 22.741327999211506 -1.6255413000696413 0 0 0
9814 1 2 0 34.24273484254059 22.056778247158068 -1.9316198520873997 0 0 0
9864 1 2 0 32.799075294321305 24.275944448604807 -2.2462676791988576 0 0 0
13231 1 2 0 34.78578101125217 20.194963274391068 4.0158248097528294e-08 0 0 0
9813 1 2 0 36.267655103333404 20.48028703627646 -2.219192394205369 0 0 0
9629 1 2 0 39.73131644632369 18.84714255592612 -2.2098157857334377 0 0 0
6925 1 1 0 40.04458937901913 20.394302115745116 -1.6436517536463984 0 0 0
9811 1 2 0 38.78218871608962 21.260561780533642 -2.2372373276244466 0 0 0
6927 1 1 0 37.31118973500216 21.64654929712929 -1.651835399953443 0 0 0
9815 1 2 0 37.003064978845956 23.135632336943953 -2.276005513063422 0 0 0
13230 1 2 0 40.17653870602651 20.26100660039902 -3.500230410929979e-06 0 0 0
13232 1 2 0 37.30623803576064 21.68512906904948 -6.960208463147864e-07 0 0 0
9812 1 2 0 41.30767608531615 21.382535777370787 -2.1925494341221143 0 0 0
6937 1 1 0 41.79703320867515 22.8744650833961 -1.5810752398344248 0 0 0
9831 1 2 0 41.32788677502935 24.34547802091699 -2.246833558763686 0 0 0
13242 1 2 0 41.3128273974618 22.88961487158372 -2.2125203569368063e-06 0 0 0
6887 1 1 0 44.545205920445525 19.316022544286678 -1.6421269310771578 0 0 0
9753 1 2 0 44.808233647561224 20.81476589084805 -2.3092369669466573 0 0 0
9829 1 2 0 43.422472681438926 23.005734916487306 -1.7707720911104443 0 0 0
6936 1 1 0 44.88867392954197 22.309446085093665 -1.5862723448148384 0 0 0
13192 1 2 0 44.435265677590984 19.44594159469975 -3.109827808072692e-06 0 0 0
9830 1 2 0 45.93572626192518 23.380162451193694 -2.312072998568923 0 0 0
6964 1 1 0 46.99670998386097 24.390257827215965 -1.5194206915621122 0 0 0
9752 1 2 0 48.259384166240764 19.49765080910027 -2.242589827692219 0 0 0
6896 1 1 0 49.59470804659718 20.306449677832138 -1.6364247689633726 0 0 0
9766 1 2 0 50.80049296009925 19.27205319750872 -2.0691548523861094 0 0 0
9768 1 2 0 50.042712539244505 21.793343347690225 -2.276440911792881 0 0 0
6963 1 1 0 50.00102711354955 23.29006124807575 -1.5232429734805284 0 0 0
9866 1 2 0 48.389543414991124 23.549709359781826 -1.460782207094224 0 0 0
13201 1 2 0 49.40710508732124 20.502642196131433 -3.0098546438931154e-07 0 0 0
6895 1 1 0 52.37694729557326 19.162441592638267 -1.6368028632942593 0 0 0
9767 1 2 0 53.22472975613184 20.40950832821458 -2.308678920352192 0 0 0
9834 1 2 0 53.77144180603727 22.99582137516697 -2.214395425422946 0 0 0
13200 1 2 0 52.54814702469784 19.149014444201843 -1.8737268699239795e-07 0 0 0
9832 1 2 0 55.761473992055365 21.31348314707343 -2.2722941801218544 0 0 0
6939 1 1 0 54.24943303817443 21.507742673935546 -1.6463791324583488 0 0 0
13244 1 2 0 54.20811016952924 21.36067528737886 -2.483998982049976e-07 0 0 0
6999 1 1 0 54.35365843101709 24.378444596157024 -1.5142440620839823 0 0 0
9673 1 2 0 57.39335959437789 19.24762903922014 -2.183192408963288 0 0 0
6938 1 1 0 57.180440247263476 20.782136893658244 -1.6409076304486905 0 0 0
9833 1 2 0 58.424033609462114 21.709466660132964 -2.215011547720532 0 0 0
6973 1 1 0 58.92579621603342 23.177852528369122 -1.6322673953242433 0 0 0
9883 1 2 0 58.031855234912264 24.350886981247665 -2.3251784634870747 0 0 0
6837 1 1 0 61.008216334539846 19.58539497753858 -1.5267820607848392 0 0 0
9674 1 2 0 61.16294223619586 20.999174266132975 -2.3662254368514746 0 0 0
6972 1 1 0 61.65557239612676 22.402500768143728 -1.641215151368008 0 0 0
9881 1 2 0 60.49060804896919 23.51703870873811 -2.0400222754060624 0 0 0
13277 1 2 0 61.79850832531961 22.234729713655334 -3.478517535057246e-07 0 0 0
9670 1 2 0 62.56284873021629 19.07526443299086 -1.4807273676806818 0 0 0
9882 1 2 0 63.091916771512395 22.940997811709124 -2.2290505182458697 0 0 0
6975 1 1 0 63.83416876358592 24.31491089390739 -1.6506185292658084 0 0 0
9884 1 2 0 65.39186560125876 24.110201268109353 -2.2105397283759802 0 0 0
9772 1 2 0 66.94223342979355 19.643521991488157 -2.2606789116361274 0 0 0
9843 1 2 0 67.53396318416215 22.17438285105656 -2.21088588441774 0 0 0
6974 1 1 0 66.89091408957113 23.61107257755351 -1.647293157209551 0 0 0
13279 1 2 0 66.82875008681478 23.54932549496165 -1.1303233018839339e-06 0 0 0
6945 1 1 0 68.06852219955377 20.69371068855181 -1.6495992444598548 0 0 0
9841 1 2 0 69.53656984869356 20.094097723297796 -2.1846494134818553 0 0 0
6944 1 1 0 71.0610272435054 19.66230838708095 -1.6488833847742919 0 0 0
13249 1 2 0 71.06195244625812 19.633895663321326 -2.1761421580262437e-06 0 0 0
13250 1 2 0 68.11218576212666 20.747192308038425 -3.905222731966035e-06 0 0 0
9842 1 2 0 72.00085547522669 20.90976049855367 -2.24314549997612 0 0 0
6950 1 1 0 73.08412637153799 22.008543151540493 -1.6535257732956674 0 0 0
13255 1 2 0 73.056854083329 21.911776104775264 -2.8733064673950345e-06 0 0 0
9849 1 2 0 72.85413051014477 23.56880356791883 -2.1588721408665794 0 0 0
9778 1 2 0 74.979267047081 19.23799367341791 -1.2742784146553998 0 0 0
9848 1 2 0 74.58130846682973 21.67519729279029 -2.3000123909688526 0 0 0
6949 1 1 0 75.62976479065753 20.726735635105523 -1.472992073701572 0 0 0
9788 1 2 0 76.9911394671491 20.499588629310857 -2.3511048033098376 0 0 0
13254 1 2 0 75.96349415208458 21.441631540211667 -2.9987962007391664e-06 0 0 0
6909 1 1 0 78.49170780995235 20.35371569105941 -1.657104938228284 0 0 0
9790 1 2 0 77.6934219506551 24.30585450832191 -2.2431635689369145 0 0 0
9775 1 2 0 79.13019795444062 18.903445391348516 -2.18474100012054 0 0 0
9787 1 2 0 79.15680681327368 21.76513097838603 -2.196289991647871 0 0 0
6911 1 1 0 81.83061253740341 23.3707461854737 -1.641991757561901 0 0 0
9785 1 2 0 82.17637952657351 21.8222354708833 -2.2177727313539664 0 0 0
6910 1 1 0 78.88739541749716 23.321555744632235 -1.6267417420999297 0 0 0
9789 1 2 0 80.33823586626984 23.96922536015988 -2.061758811451604 0 0 0
13216 1 2 0 81.9993325984052 23.281721479664185 -1.7881845205095757e-06 0 0 0
6908 1 1 0 83.31105404525366 20.722687028608117 -1.616889442714841 0 0 0