LAMMPS data file via write_data, version 23 Jun 2022, timestep = 7111

15360 atoms
2 atom types

4.45330832103194 199.38751749523024 xlo xhi
5.1001297728271515 170.23460177119787 ylo yhi
-100 100 zlo zhi

Masses

1 28.085
2 15.999

Atoms # full

6531 1 1 0 6.164197676504467 5.3336948534489945 -1.6378121238236092 0 0 0
9174 1 2 0 5.139023599078941 6.487501920783542 -2.139997526044372 0 0 0
9184 1 2 0 7.683708157759216 5.625413773229331 -2.1660147443113296 0 0 0
6530 1 1 0 9.197827466140374 5.918238049187573 -1.620059278915633 0 0 0
9182 1 2 0 9.85124039072762 7.3258571766347576 -2.146114365662818 0 0 0
6786 1 1 0 13.920949483560097 5.868287222791242 -1.6457604585114272 0 0 0
9567 1 2 0 13.826861790578652 7.477972032784524 -2.0995230303306465 0 0 0
9572 1 2 0 15.329958613513796 5.165644121111355 -2.1415616296537445 0 0 0
9578 1 2 0 18.007875129429987 5.332835743053915 -1.9936818749644745 0 0 0
6790 1 1 0 19.24510508360167 6.576654713874189 -1.6100842064501852 0 0 0
9579 1 2 0 20.76309046021553 5.92833872051507 -1.8722910559233878 0 0 0
9592 1 2 0 25.78575497874912 5.516920272007123 -2.169906230969063 0 0 0
6798 1 1 0 26.893127327635845 6.578201471019555 -1.6521506694436008 0 0 0
9593 1 2 0 28.40837670884715 6.210795233748849 -2.122066982028369 0 0 0
6810 1 1 0 29.945789048246965 6.2962995974921245 -1.5986233462518018 0 0 0
9612 1 2 0 31.14096498001906 5.284204835023276 -2.0179597697565375 0 0 0
9618 1 2 0 33.67487962121018 6.146222587703535 -2.149254056606655 0 0 0
6814 1 1 0 34.74905068709838 7.254388777598535 -1.626189680665237 0 0 0
9619 1 2 0 36.23706533522541 6.932223821844486 -2.163592792385644 0 0 0
6817 1 1 0 37.76550074160948 6.917921962499078 -1.6311108309665148 0 0 0
9624 1 2 0 38.276682212824674 5.42595434220327 -2.092399738633442 0 0 0
6820 1 1 0 41.77672582373299 5.314873830620382 -1.6336559321274224 0 0 0
9626 1 2 0 41.62085866584903 6.8809653550375485 -2.079617763928418 0 0 0
9639 1 2 0 45.264501505930376 5.210191683398592 -1.9855713495934881 0 0 0
6827 1 1 0 46.33845340790351 6.349222790284989 -1.5874224436298001 0 0 0
9640 1 2 0 47.65030019248374 5.555780901447602 -2.143577061703903 0 0 0
9654 1 2 0 50.08712084757049 5.747889102021612 -2.1851075252252268 0 0 0
6836 1 1 0 51.30214957528426 6.665202504681326 -1.6297964617000107 0 0 0
9655 1 2 0 52.56526307794383 5.779005543048023 -2.1291780173316144 0 0 0
6843 1 1 0 53.951755785880465 5.180408901324169 -1.5633735913198612 0 1 0
9664 1 2 0 55.00772742766816 6.335003477280901 -1.9406619464154977 0 0 0
6842 1 1 0 56.32799439191021 7.185316008872817 -1.5709687184634848 0 0 0
9665 1 2 0 57.67765847238074 6.38299308480687 -2.0074414785600005 0 0 0
9676 1 2 0 60.106534368167466 5.216672144122894 -2.1614345462301556 0 0 0
6849 1 1 0 61.635900441452996 5.559647512080924 -1.6338015982351155 0 0 0
9674 1 2 0 62.20852727909516 7.034398585430142 -2.1138836129317715 0 0 0
9683 1 2 0 68.89325625704724 6.27465010561249 -2.0595094380723675 0 0 0
6862 1 1 0 74.61470751660015 5.3878791802478245 -1.6088774190391013 0 0 0
9695 1 2 0 74.15632359158717 6.888513380182671 -2.053922175686045 0 0 0
9705 1 2 0 78.55798839828086 6.373979295998704 -2.071085348835652 0 0 0
9718 1 2 0 84.01521017843487 5.937705636091 -2.0832620107612274 0 0 0
6875 1 1 0 84.23150044681074 7.477516008762594 -1.6280695905653113 0 0 0
6885 1 1 0 89.08313404270996 5.628055835233534 -1.638447256902932 0 0 0
9731 1 2 0 88.25334499215812 6.964216932165754 -2.1330284269889384 0 0 0
9736 1 2 0 90.63869581644082 5.557074792727661 -2.1307660322461137 0 0 0
6889 1 1 0 92.19133905307704 5.755722077617211 -1.6330049001832465 0 0 0
9739 1 2 0 92.30860100016228 7.411238997649833 -2.0208223639819876 0 0 0
6895 1 1 0 97.8442720704847 7.245418251385873 -1.6077068373374843 0 0 0
9751 1 2 0 98.55549842816724 5.849089536406541 -2.09145710578011 0 0 0
9014 1 2 0 101.3285296957036 5.201073295357318 -2.126970751992844 0 0 0
9171 1 2 0 4.593400002994406 9.036560314476617 -2.1012439435197248 0 0 0
6529 1 1 0 10.336275071444565 8.798928380872239 -1.6154469778209997 0 0 0
6783 1 1 0 13.480290328533162 9.04592048724431 -1.611273277644825 0 0 0
9183 1 2 0 11.883609134956624 9.194629547937382 -1.9581995678345232 0 0 0
9577 1 2 0 19.527559753182462 8.264305945310328 -2.033682430993968 0 0 0
6791 1 1 0 20.18767839049268 9.822988060547326 -1.6062608950212443 0 0 0
6796 1 1 0 25.89974806608944 9.475432692724196 -1.6104282890283788 0 0 0
9588 1 2 0 24.433604805575605 9.925310628997508 -2.117876638253365 0 0 0
9589 1 2 0 26.426424893329568 8.046166654274895 -2.1579498706529425 0 0 0
9610 1 2 0 30.58817557833523 7.722523475317092 -2.0122554070895617 0 0 0
6809 1 1 0 30.78882935577307 9.266007962841464 -1.6068389599481208 0 0 0
9611 1 2 0 32.191048402418 9.889125399045522 -2.103087299985653 0 0 0
9614 1 2 0 34.48565418979853 8.807524713986497 -2.0441484456653285 0 0 0
9621 1 2 0 38.3744332981621 8.38169663726037 -2.088355119764585 0 0 0
9623 1 2 0 40.56957540770046 9.433256289828297 -2.0895746094942385 0 0 0
6816 1 1 0 39.03383594772457 9.832530788802604 -1.6295574676943765 0 0 0
6819 1 1 0 41.80511383053317 8.4475412916076 -1.6354085698539815 0 0 0
9627 1 2 0 43.29187423008829 8.883367532648752 -2.139356853059424 0 0 0
6823 1 1 0 44.837705209283115 9.057842955933348 -1.6475066782945662 0 0 0
9633 1 2 0 45.79514485083557 7.8064701750063765 -2.0928709596802024 0 0 0
9652 1 2 0 51.35378739540377 8.233024841160006 -2.069169079485964 0 0 0
6835 1 1 0 51.663998913406736 9.78558252989487 -1.6306012072720675 0 0 0
6838 1 1 0 54.86606898162549 9.901588763889599 -1.6404482048243998 0 0 0
9658 1 2 0 55.67117195431964 8.562143257359896 -2.149828103014484 0 0 0
9668 1 2 0 61.511080305235836 9.650445337366099 -2.0582617860224746 0 0 0
6848 1 1 0 62.6737317357177 8.551103950237621 -1.640947084119454 0 0 0
9675 1 2 0 64.20877161322599 8.968421782744558 -2.1395819727076453 0 0 0
6852 1 1 0 65.73890099476657 9.368597320398504 -1.6169812593390243 0 0 0
9681 1 2 0 67.01467764162616 8.420415242554787 -2.102361963703405 0 0 0
6854 1 1 0 68.49465225485632 7.8287788560540825 -1.6164382783128113 0 0 0
9684 1 2 0 69.67220931675908 8.919814115986725 -2.0166081862119 0 0 0
9691 1 2 0 72.38077540088211 8.995094244499262 -2.154016619572269 0 0 0
6858 1 1 0 71.03077170647305 9.772903786410716 -1.629650442448469 0 0 0
6861 1 1 0 73.8208677367312 8.420018695533301 -1.622489875950368 0 0 0
9696 1 2 0 75.08212980492017 9.329192940560452 -2.09914154432162 0 0 0
6864 1 1 0 76.53054121276466 9.900144536873086 -1.6323091189747794 0 0 0
9701 1 2 0 77.75119504743715 8.936401450841593 -2.1251443561332866 0 0 0
6867 1 1 0 78.93149142323111 7.917984555703224 -1.631983682941232 0 0 0
9706 1 2 0 80.36012139583502 8.545567573559229 -2.1532913481180427 0 0 0
6872 1 1 0 81.74340864023127 9.273856513811293 -1.6519339329942269 0 0 0
9714 1 2 0 83.02678508158748 8.4184359159588 -2.1809726702360366 0 0 0
6882 1 1 0 87.26910656151993 8.184596072159579 -1.6339073313617618 0 0 0
9719 1 2 0 85.72087445395857 7.941526106380607 -2.0830245637838702 0 0 0
9730 1 2 0 87.6244381769903 9.696600681195546 -2.159707116501118 0 0 0
6887 1 1 0 92.45676867956172 9.068195987604682 -1.624010562253553 0 0 0
9740 1 2 0 94.00090249950358 9.185331454623025 -2.167934064597535 0 0 0
6890 1 1 0 95.54208245155012 9.267468090777285 -1.656208096185046 0 0 0
9744 1 2 0 96.53439383605615 8.060218437413605 -2.136268997252618 0 0 0
9013 1 2 0 99.20556925970831 8.04347946085832 -2.0279710725678983 0 0 0
6428 1 1 0 100.75766579001763 8.233060035400493 -1.6075280917103907 0 0 0
9010 1 2 0 101.3187552870488 9.636218132132166 -2.135199309381888 0 0 0
6522 1 1 0 5.244095523640759 10.455446867148863 -1.6350180061539812 0 0 0
9172 1 2 0 6.776696818514245 10.715024751880069 -2.1331143668060735 0 0 0
6525 1 1 0 8.283978485587536 11.106703668478143 -1.6438532888577169 0 0 0
9176 1 2 0 9.336059046183241 9.969293126772808 -2.15438004080493 0 0 0
9566 1 2 0 14.252040581183845 10.471954819182258 -2.079771394585913 0 0 0
6784 1 1 0 14.562928035339644 12.06002044539088 -1.6044203953843483 0 0 0
9580 1 2 0 19.961660016280227 11.464581583490077 -2.0808136683604492 0 0 0
9581 1 2 0 21.78810907971411 10.0511580233642 -1.9804791272995934 0 0 0
6797 1 1 0 23.186057757708497 10.835529626042367 -1.6238867130358736 0 0 0
9591 1 2 0 23.579276971983617 12.352566720376583 -2.1488055534718797 0 0 0
9590 1 2 0 26.958224461743054 10.650868710523874 -1.956344676280548 0 0 0
6805 1 1 0 28.44631814451963 11.17696482190627 -1.6231447792510916 0 0 0
9604 1 2 0 29.537343450651484 10.117002484311152 -2.1553235062698537 0 0 0
6811 1 1 0 33.70942711081647 10.174588885646338 -1.6248821718973188 0 0 0
9613 1 2 0 34.196841103222255 11.640620786449919 -2.1646537829338546 0 0 0
9622 1 2 0 38.320268248697225 11.263288160238194 -2.109453720086229 0 0 0
6824 1 1 0 45.720336339863664 12.02132191045175 -1.637783512033584 0 0 0
9632 1 2 0 45.34739683013145 10.513420226032114 -2.1724622808701186 0 0 0
9635 1 2 0 47.39176240040475 11.960534997753923 -2.037692034770691 0 0 0
6831 1 1 0 49.01835309135345 11.647739476065517 -1.6095273325532664 0 0 0
9646 1 2 0 50.28893110981744 10.636552451918266 -2.1180931857982856 0 0 0
9653 1 2 0 53.26179843364111 10.0907239911783 -2.072892856094018 0 0 0
9657 1 2 0 56.17937025665039 10.770016151284526 -2.1662082841553967 0 0 0
6839 1 1 0 57.558939380264725 11.507949497713929 -1.6196233772145041 0 0 0
9660 1 2 0 59.11041732359121 11.194518747848125 -2.129974905055396 0 0 0
6844 1 1 0 60.69132902757286 11.017981555762757 -1.6226039331055455 0 0 0
9667 1 2 0 61.6805650523842 12.265365523972154 -2.035608211473847 0 0 0
9680 1 2 0 66.14482212659334 10.9330318680641 -1.9251084774444371 0 0 0
9690 1 2 0 71.0769225757212 11.349810618160918 -2.1325521086642705 0 0 0
9700 1 2 0 76.70331910269067 11.442551067937938 -2.1048785567454797 0 0 0
9713 1 2 0 81.9513124849228 10.825753980298897 -2.1337154891488046 0 0 0
6873 1 1 0 82.31931947692851 12.34713735977688 -1.6300545702677103 0 0 0
9732 1 2 0 86.52770479854672 12.211035302688076 -2.0714287447572177 0 0 0
6883 1 1 0 87.7730038093882 11.236751009015753 -1.6140464833206718 0 0 0
9733 1 2 0 89.26174574814871 11.773929575354137 -2.01822998824751 0 0 0
9738 1 2 0 91.61712435015318 10.511622727552709 -2.0468068392918544 0 0 0
6888 1 1 0 90.84210779734555 11.998914834591833 -1.6054574123408762 0 0 0
9743 1 2 0 96.11153502639634 10.702996079387086 -2.1508383561895883 0 0 0
6891 1 1 0 96.66543622435839 12.13175160043043 -1.636979665511513 0 0 0
9190 1 2 0 98.2208221706457 12.289268226873247 -2.069144308103704 0 0 0
9011 1 2 0 100.94954966404879 12.12600286716462 -2.146854099401808 0 0 0
9175 1 2 0 8.754798163014616 12.591486603023428 -2.1343720131316153 0 0 0
6528 1 1 0 9.385412165760874 14.009649834042216 -1.6235029947965016 0 0 0
9181 1 2 0 10.917104173964976 14.259468828539497 -2.1468137945732195 0 0 0
9568 1 2 0 13.25751952818534 13.00398442787861 -1.918681307008117 0 0 0
6785 1 1 0 12.461150051542207 14.401278748528526 -1.617406268582825 0 0 0
9569 1 2 0 15.795600448625219 13.076483559360348 -2.106577181165561 0 0 0
6793 1 1 0 16.954036720767878 14.189236990711048 -1.6429276478964767 0 0 0
9583 1 2 0 18.38326494885146 13.580954064697831 -2.1627300525797755 0 0 0
6794 1 1 0 19.866897616589043 13.10855973610519 -1.645535834187421 0 0 0
9585 1 2 0 20.809792205504813 14.459069966328174 -2.071315347701477 0 0 0
6807 1 1 0 24.166220660052783 13.80552874071995 -1.6435712681945058 0 0 0
9607 1 2 0 25.61851463314731 14.414462420490823 -2.104511348934063 0 0 0
6806 1 1 0 29.462814215671752 14.053810292367597 -1.6282246017504132 0 0 0
9603 1 2 0 28.932702748460088 12.618177586663471 -2.183498930957001 0 0 0
9606 1 2 0 30.961462235469615 14.511148131237137 -2.06936295571797 0 0 0
9615 1 2 0 33.628977579564875 14.371476517624659 -2.118704173784169 0 0 0
6812 1 1 0 34.64282467407554 13.132494047286466 -1.6327551987768096 0 0 0
9616 1 2 0 36.25373772321976 13.200992530489108 -2.000129411060776 0 0 0
6818 1 1 0 37.814529701804496 12.784550145654663 -1.6298664774332696 0 0 0
9625 1 2 0 38.7993639893891 14.021353704696423 -2.137294295823144 0 0 0
6825 1 1 0 42.992311788598 14.054429981710532 -1.6280177471854616 0 0 0
9636 1 2 0 41.37535149743539 14.658174045205351 -1.9678904567693625 0 0 0
9634 1 2 0 44.342336871673766 12.996037007245333 -2.044201157559785 0 0 0
9645 1 2 0 49.797704843912186 13.005606337981172 -2.065492381250354 0 0 0
6832 1 1 0 50.29745740278906 14.48195294344795 -1.6343147411802101 0 0 0
9648 1 2 0 51.84566257480312 14.684948851811697 -2.1439845554249986 0 0 0
9661 1 2 0 54.76704466161081 14.591834524510547 -2.1461582933864385 0 0 0
6840 1 1 0 56.30956021867867 14.364365018698095 -1.624230283063391 0 0 0
9659 1 2 0 56.990153785136485 12.962679845214659 -2.076049898726716 0 0 0
6845 1 1 0 62.91486662006332 13.263374923360043 -1.6204245832766984 0 0 0
9669 1 2 0 62.639930606034575 14.768693757647732 -2.1607211744500905 0 0 0
9670 1 2 0 64.4234639725032 12.881978064752913 -2.120612759888527 0 0 0
6853 1 1 0 65.93611243806731 12.52798787576403 -1.603748345356979 0 0 0
9682 1 2 0 67.1621944940934 13.492734050336148 -2.1454585671865476 0 0 0
6860 1 1 0 68.43726733815768 14.415695746906795 -1.64243185798751 0 0 0
9692 1 2 0 69.89050380074295 13.777091057800902 -2.0805179196359758 0 0 0
6859 1 1 0 71.22412937170706 12.922232495168581 -1.6252620286502406 0 0 0
9693 1 2 0 72.64392804110427 13.667027133342069 -2.054139877415582 0 0 0
6866 1 1 0 74.02238265194198 14.489380131734762 -1.6334215738973281 0 0 0
9702 1 2 0 75.41516349148606 13.759416205824952 -2.118971202056183 0 0 0
6865 1 1 0 76.78649149990474 12.99699802146224 -1.630388354521432 0 0 0
9703 1 2 0 78.24230734692009 13.55346164710353 -2.155632155959792 0 0 0
6874 1 1 0 79.69517790368148 14.126064523957108 -1.6419081577819403 0 0 0
9715 1 2 0 81.052511485046 13.302438491712396 -2.0754448237108685 0 0 0
9716 1 2 0 83.82027201354535 12.855366337574532 -2.123386917103674 0 0 0
6884 1 1 0 85.35250351504367 13.282837089122394 -1.6386279738442093 0 0 0
9734 1 2 0 85.80623476072131 14.795707357988688 -2.1241146173674434 0 0 0
9741 1 2 0 90.88953940644896 13.670788229862957 -2.05311786867766 0 0 0
9745 1 2 0 95.78022646655721 13.409189655121205 -2.1343309515046043 0 0 0
6533 1 1 0 99.6412567518337 12.930664149353696 -1.6323449844579443 0 0 0
9189 1 2 0 99.7277783578057 14.452061087864385 -2.1548329466071103 0 0 0
9177 1 2 0 5.86252266739544 16.06158305121428 -2.1504146663250236 0 0 0
6527 1 1 0 7.376314341177261 16.417531711826797 -1.6138887489581488 0 0 0
9179 1 2 0 8.409171347107156 15.237645814124859 -2.053702373148437 0 0 0
9570 1 2 0 13.21071712543427 15.772256656336738 -2.140592901962742 0 0 0
9584 1 2 0 16.94672156917069 15.802116735369097 -2.093564494131373 0 0 0
6909 1 1 0 21.792052102652917 15.781486893146257 -1.6015259455632904 0 0 0
9608 1 2 0 23.13131591997611 14.974823949429094 -2.061142699128043 0 0 0
6808 1 1 0 26.770930713872072 15.483273591042124 -1.632396909098139 0 0 0
9605 1 2 0 28.25862614519034 15.032361385778007 -2.09448322926674 0 0 0
9609 1 2 0 26.547884068417293 17.02836679945705 -2.0824222155003285 0 0 0
6813 1 1 0 32.32632594433083 15.314143774927144 -1.638624445979574 0 0 0
9617 1 2 0 32.14415029526933 16.91577880762392 -2.1053394251743085 0 0 0
6826 1 1 0 39.774109891436346 15.276816841870293 -1.6347236166803103 0 0 0
9638 1 2 0 38.95837787761443 16.78580230864032 -2.037719958094329 0 0 0
9637 1 2 0 43.818874171777665 15.355353100518608 -2.161204812908916 0 0 0
6833 1 1 0 44.74511666633698 16.574643464855384 -1.6433820191683397 0 0 0
9649 1 2 0 46.28617081262437 16.286402382865287 -2.1148581308403256 0 0 0
6834 1 1 0 47.84214959291483 16.383832581262876 -1.6076748196949286 0 0 0
9647 1 2 0 49.09938401921348 15.480440916977528 -2.148761904706849 0 0 0
6841 1 1 0 53.3232065684466 15.202863776836468 -1.6529253681377443 0 0 0
9663 1 2 0 53.35104945009137 16.73203321863898 -2.1601408188957314 0 0 0
9662 1 2 0 57.55711686764525 15.29992765593047 -2.1244182857351555 0 0 0
6846 1 1 0 58.943062922831466 15.989764430096717 -1.5892375949154378 0 0 0
9671 1 2 0 60.49097132428469 16.037912194720665 -2.1402316850808827 0 0 0
6847 1 1 0 62.051604158341 16.19132846393404 -1.6529341891275668 0 0 0
9694 1 2 0 68.33946277425271 15.98587384254639 -2.1247281984673863 0 0 0
9704 1 2 0 74.1224736293524 16.057350950915918 -2.1489651787801556 0 0 0
9717 1 2 0 79.79900586970074 15.679419983907206 -2.1340636079803676 0 0 0
6965 1 1 0 80.22752941686934 17.161219749124097 -1.6071761321403422 0 0 0
9789 1 2 0 84.52102431310387 17.0859914083663 -2.100858944080199 0 0 0
6921 1 1 0 85.90156518228879 16.365195731023437 -1.6176626649122414 0 0 0
9747 1 2 0 89.5451066657977 16.49215399007281 -2.0505354390759463 0 0 0
6892 1 1 0 90.68572521973195 15.31812838691876 -1.6306402009603869 0 0 0
9746 1 2 0 91.85906762456034 16.354604096315168 -2.1609475068380077 0 0 0
9748 1 2 0 94.12705039889363 15.812492302820168 -2.078724900177894 0 0 0
6894 1 1 0 93.2208884462122 17.09649641710799 -1.6255217509485194 0 0 0
6893 1 1 0 95.34574315518826 14.873695889767355 -1.5769511580724327 0 0 0
9749 1 2 0 96.56793774465847 15.885002557440604 -1.871203872478016 0 0 0
9191 1 2 0 98.71357538842129 16.93664990127076 -2.0935499453027524 0 0 0
6534 1 1 0 99.91105356584923 15.965752667906308 -1.6436139666515204 0 0 0
9187 1 2 0 101.23951966799777 16.645957154605462 -2.2089978672404156 0 0 0
9180 1 2 0 8.017177688844017 17.845820424825792 -2.094137107716237 0 0 0
6597 1 1 0 8.625090256211923 19.29439855652058 -1.6322568333376315 0 0 0
9288 1 2 0 10.179885122685855 19.566801812324197 -2.1025736305299967 0 0 0
6906 1 1 0 13.690542279957908 17.25944381888575 -1.609184365434331 0 0 0
9343 1 2 0 12.63577619825374 18.419356148766628 -2.082288324440864 0 0 0
9767 1 2 0 15.245935795630013 17.687402539221644 -1.9225985545442326 0 0 0
6907 1 1 0 16.841174585359287 17.40804086670051 -1.6079622853252868 0 0 0
9768 1 2 0 17.846045366771868 18.69537063470643 -2.07922415923163 0 0 0
9770 1 2 0 22.28374367540891 17.346923734975796 -2.062360411359451 0 0 0
6932 1 1 0 23.151565592231314 18.74108998454224 -1.651750494170759 0 0 0
9803 1 2 0 24.767403051995444 18.835053763950526 -2.0835219623506664 0 0 0
6931 1 1 0 26.35733207001461 18.586502311071452 -1.624135637726359 0 0 0
9804 1 2 0 27.713777069235952 19.440257999724444 -2.132687023739834 0 0 0
9806 1 2 0 30.61640116089476 19.442677244840798 -2.0069314305515564 0 0 0
6933 1 1 0 32.03461625008092 18.533853817773064 -1.626395510163839 0 0 0
9807 1 2 0 33.533133701333654 19.18736723343553 -2.0672858851396 0 0 0
9809 1 2 0 36.48211005575405 18.895794990846632 -2.0229522606106993 0 0 0
6935 1 1 0 38.055986129124754 18.237790129323958 -1.6098938365924067 0 0 0
9810 1 2 0 39.05274780197105 19.51947535460349 -1.958408684636838 0 0 0
6937 1 1 0 43.217222329376305 19.277998578151685 -1.6056254062562032 0 0 0
9650 1 2 0 43.990123596633396 17.938946858850024 -2.1372393156524887 0 0 0
9651 1 2 0 48.15710724673027 17.903762468393303 -2.047518623733556 0 0 0
6939 1 1 0 48.11582202750824 19.452948229093135 -1.6223893341364881 0 0 0
9821 1 2 0 51.90004501394581 18.90374133177846 -1.951151403071336 0 0 0
6943 1 1 0 53.31327403015242 18.23393297050544 -1.6105681958976723 0 0 0
9822 1 2 0 54.570271666909186 19.056751747303906 -2.186477590858752 0 0 0
9824 1 2 0 57.26564313000732 19.525429295067386 -2.1954254317557145 0 0 0
9672 1 2 0 58.631732336951494 17.494694796592825 -2.0436630438328574 0 0 0
6945 1 1 0 58.66419423085321 19.023414954509416 -1.6050141622995069 0 0 0
9673 1 2 0 63.0105271739522 17.43107080966148 -2.138204655005752 0 0 0
6950 1 1 0 63.742557366515705 18.804514657939812 -1.6145992520996466 0 0 0
9833 1 2 0 65.13135501464299 19.467070609222507 -2.1644816375954963 0 0 0
9835 1 2 0 67.3875895873589 18.59651964219386 -1.988338462043044 0 0 0
6952 1 1 0 68.55124383625217 17.529139884642028 -1.6163166034643957 0 0 0
9836 1 2 0 69.90000421886518 18.248137180591215 -2.1738236779240587 0 0 0
9843 1 2 0 72.49459125532138 18.029792272397632 -1.9991112213271738 0 0 0
6958 1 1 0 71.24291678362529 18.95867601525774 -1.6032799804235884 0 0 0
6957 1 1 0 74.0047406753865 17.60890696753162 -1.6064548834070052 0 0 0
9844 1 2 0 74.85136826463261 18.924695963917664 -2.1211369765811092 0 0 0
9857 1 2 0 79.34228955609723 18.436854485582906 -2.122629394115044 0 0 0
9856 1 2 0 81.80552809905159 17.297207456478322 -1.9767428251492192 0 0 0
6966 1 1 0 83.2397510713959 17.95189106795142 -1.602682620093278 0 0 0
9858 1 2 0 83.27144115540688 19.475963117914496 -2.1563573759035677 0 0 0
9788 1 2 0 87.17575015594879 17.334634923006085 -2.0020679082200394 0 0 0
6922 1 1 0 88.6878739495955 17.876313651828728 -1.612996079909575 0 0 0
9790 1 2 0 88.97818853211484 19.489471762184387 -2.0756770011806815 0 0 0
9750 1 2 0 93.89720364316719 18.53811982890667 -2.067740488895548 0 0 0
9864 1 2 0 96.41855291143409 18.614746588219173 -2.054684778477875 0 0 0
6988 1 1 0 95.14702924753865 19.538967251422307 -1.63145851956662 0 0 0
6970 1 1 0 97.24661084971748 17.322392731131636 -1.5687229849159428 0 0 0
6595 1 1 0 6.771858257225705 21.75859351367733 -1.6259904512680816 0 0 0
9284 1 2 0 5.2417430301629615 22.076200044918522 -2.1204227405754845 0 0 0
9285 1 2 0 7.581609394193826 20.444043342021175 -2.1592998438400555 0 0 0
6633 1 1 0 11.7501273080167 19.722069435719522 -1.631873851607986 0 0 0
9342 1 2 0 12.536129283905211 21.076314627479565 -2.149641541515674 0 0 0
6975 1 1 0 18.475950221447842 20.20915860087881 -1.6276163914921011 0 0 0
9872 1 2 0 17.52869354772523 21.457804668650592 -2.139054372311743 0 0 0
9871 1 2 0 19.997889015347855 20.82774487262735 -2.008742089603469 0 0 0
6976 1 1 0 21.511385240582797 21.47809631989589 -1.6184684352460164 0 0 0
9805 1 2 0 22.44524359924146 20.17989558142713 -2.125769142052937 0 0 0
6934 1 1 0 29.12218563259272 20.228282566886417 -1.6312719002128817 0 0 0
9808 1 2 0 28.853590687373437 21.86331249320556 -2.037685460986262 0 0 0
6936 1 1 0 35.0538103545017 19.81037021713529 -1.6335317297159124 0 0 0
9811 1 2 0 34.97457823993649 21.457000587839254 -2.0478780213972736 0 0 0
6938 1 1 0 40.36321226520545 20.453728019332765 -1.6121115067056635 0 0 0
9814 1 2 0 40.257891195778726 22.02995199085285 -2.0959077518362355 0 0 0
9812 1 2 0 41.73602080905681 19.72304210117002 -2.1436366698030396 0 0 0
9813 1 2 0 44.20929078755682 20.506232918466903 -1.9322788382627971 0 0 0
6940 1 1 0 45.63332341064094 21.173161081878636 -1.5992640428673923 0 0 0
9815 1 2 0 46.84931919120954 20.280864446987692 -2.160886314466804 0 0 0
9816 1 2 0 49.50785711825819 20.038298880055866 -2.1584666082056376 0 0 0
6944 1 1 0 50.99951792731818 20.179950306056668 -1.6086737139608325 0 0 0
9823 1 2 0 51.78674815160171 21.434025653566113 -2.1904347798086663 0 0 0
6946 1 1 0 55.8168962417295 19.896756062822277 -1.627830306528732 0 0 0
9826 1 2 0 55.696067504922105 21.406776513944045 -2.0936921833798317 0 0 0
9825 1 2 0 59.994303414527636 19.726159409977573 -2.1404602361095306 0 0 0
6951 1 1 0 61.26593998447751 20.539133609939714 -1.6080868854029275 0 0 0
9832 1 2 0 62.675983468402755 19.93075221222656 -2.0161760059943337 0 0 0
9834 1 2 0 61.10993841157599 22.00530805043595 -2.194297160527133 0 0 0
6953 1 1 0 66.58777507312611 19.968034977361892 -1.6071869353384645 0 0 0
9837 1 2 0 67.30063297089129 21.360115730348646 -2.1199691261812283 0 0 0
9845 1 2 0 71.49450456320997 20.4970978102228 -2.035750533396407 0 0 0
7026 1 1 0 71.31175382043052 22.04933285491251 -1.601354215614326 0 0 0
9883 1 2 0 75.01438237714252 21.787995258891577 -2.0903738948799115 0 0 0
6983 1 1 0 75.6058897284398 20.309810881212652 -1.6393168378500644 0 0 0
9882 1 2 0 77.13105389826735 20.080155201097487 -2.1773361467539964 0 0 0
6984 1 1 0 78.64976669759696 19.83846141799863 -1.6381451591292393 0 0 0
9884 1 2 0 79.50209278199593 21.141112962551713 -2.1111905162379623 0 0 0
9886 1 2 0 82.03598264676826 21.85280487925394 -2.02952009378616 0 0 0
6985 1 1 0 83.35059375793779 21.00458745004983 -1.6279944561210846 0 0 0
9885 1 2 0 84.7082263038186 21.698489590785595 -2.176749275068411 0 0 0
6987 1 1 0 88.87602465564828 21.12503742618555 -1.634090440652526 0 0 0
9887 1 2 0 87.41376240196328 21.730582761244094 -2.0796266137087343 0 0 0
9890 1 2 0 95.5470035353181 21.05217346709596 -2.151592387745051 0 0 0
6570 1 1 0 101.72078107146419 20.58226099853645 -1.6300186375679742 0 0 0
9246 1 2 0 100.54121467302694 21.72061522652208 -2.1249444088464378 0 0 0
9286 1 2 0 7.676340752641541 23.049679857503605 -2.022109104258357 0 0 0
6634 1 1 0 13.477833476303521 22.308556326898305 -1.6076947739741898 0 0 0
9344 1 2 0 13.112961327339706 23.798583332667224 -2.144603901804673 0 0 0
9345 1 2 0 15.072719088045432 22.21072612086174 -1.9449020394346326 0 0 0
6991 1 1 0 16.599309714322942 22.706527819130983 -1.6151597324950948 0 0 0
9894 1 2 0 17.03038542124413 24.220181328960088 -2.1399154531916813 0 0 0
9873 1 2 0 22.01566529270761 23.084246347041223 -2.020831720202632 0 0 0
7001 1 1 0 28.633036558816162 23.507924194518527 -1.607075036400743 0 0 0
9910 1 2 0 30.17134949171485 24.088901844018547 -1.9811594185290577 0 0 0
9908 1 2 0 33.08792406994474 23.68453931546494 -2.0495717517725507 0 0 0
7000 1 1 0 34.61528637598976 23.067823410094295 -1.6392827840908288 0 0 0
9909 1 2 0 35.861007709274496 24.11197312066234 -2.0471424107591494 0 0 0
7005 1 1 0 40.080590395048425 23.6053740049242 -1.6368727186690555 0 0 0
9916 1 2 0 38.63654125147168 24.215577045245244 -2.1521092753263877 0 0 0
9817 1 2 0 45.61060193183722 22.675774718550656 -2.161720614662169 0 0 0
7008 1 1 0 45.41225435691096 24.18572809691459 -1.6467945423896486 0 0 0
7010 1 1 0 52.44769994168776 22.76854856431882 -1.6458627129321157 0 0 0
9923 1 2 0 51.61080664176554 23.96788984883116 -2.2260016248180055 0 0 0
9924 1 2 0 53.9195796840267 23.099501467205418 -2.1272965188787905 0 0 0
7016 1 1 0 55.39275234893637 22.884013699500223 -1.6032188265301892 0 0 0
9933 1 2 0 56.56487884745575 23.750358899879377 -2.2108096448316377 0 0 0
7018 1 1 0 57.857310121299705 24.47033763616348 -1.6396046789365066 0 0 0
9934 1 2 0 59.20107134290886 23.781977771850087 -2.135577987123994 0 0 0
7017 1 1 0 60.673220270668864 23.423481711474693 -1.6446409927294654 0 0 0
9935 1 2 0 61.71036598785876 24.502330754388893 -2.16859276120787 0 0 0
7022 1 1 0 68.27014959236884 22.601663729253893 -1.6418136392214313 0 0 0
9942 1 2 0 69.82328677914307 22.445656088622577 -2.1172663717292237 0 0 0
9941 1 2 0 67.97149626285757 24.115024826561687 -2.1865428414777965 0 0 0
9948 1 2 0 72.63165175955986 22.893493188789808 -2.042106347485745 0 0 0
7027 1 1 0 74.19128588266007 23.149771444612934 -1.6287560623775739 0 0 0
7031 1 1 0 80.53421760401766 22.287932167631187 -1.6094262574203688 0 0 0
9955 1 2 0 80.30522652892803 23.80284337101594 -2.1529662976861608 0 0 0
6986 1 1 0 86.02866935866723 22.460327903509125 -1.6162373639630279 0 0 0
9888 1 2 0 85.85400012909913 24.005609303963634 -2.0807198942205156 0 0 0
9889 1 2 0 89.95047965774104 22.34825978839774 -2.0805088226524333 0 0 0
7061 1 1 0 90.64801870643409 23.81489512968538 -1.6477249281962918 0 0 0
10000 1 2 0 92.23903916587908 24.044702233637 -2.1267545925963747 0 0 0
7043 1 1 0 96.20679774234091 22.479283919451237 -1.621104403948405 0 0 0
9973 1 2 0 95.08388017039726 23.63838987743018 -2.0393062662451444 0 0 0
6638 1 1 0 99.45407779812093 22.965303547171874 -1.6377568078992322 0 0 0
9352 1 2 0 97.82991888166421 22.691995751866404 -2.022324622360331 0 0 0
9335 1 2 0 6.554397387184544 25.385637167531357 -1.9665769273842748 0 0 0
6631 1 1 0 5.748690322032632 26.722696912152077 -1.6061272003667881 0 0 0
6629 1 1 0 7.904277597874838 24.59334675409624 -1.5997403786751354 0 0 0
9336 1 2 0 9.028407948946839 25.613609613511407 -2.186712803907728 0 0 0
9340 1 2 0 11.509895548764144 25.86134582176979 -2.170578864774895 0 0 0
6632 1 1 0 10.194767215292558 26.612159579524153 -1.6421245633766859 0 0 0
6635 1 1 0 12.916883219590083 25.320407904748787 -1.6261151044542204 0 0 0
9346 1 2 0 13.964217026292772 26.458908842923325 -2.110599927142392 0 0 0
9978 1 2 0 16.429926499773902 26.92684517903315 -2.048594267115233 0 0 0
7046 1 1 0 17.47040666107167 25.734541139264145 -1.6168823118534568 0 0 0
9977 1 2 0 19.002833992530338 26.19644059080001 -1.9837809195607667 0 0 0
7045 1 1 0 22.674843655817572 24.648248026084694 -1.633580998965218 0 0 0
9975 1 2 0 21.64608599553145 25.968841780543055 -1.9968719746110566 0 0 0
9976 1 2 0 24.319491827851703 25.00751548376102 -2.0667743648010743 0 0 0
7048 1 1 0 25.903686110053737 25.583721967051876 -1.6400795012469047 0 0 0
9911 1 2 0 27.258040437796794 24.53188397303079 -2.001051796826257 0 0 0
7002 1 1 0 31.730328128744695 24.599398288001446 -1.615651507445831 0 0 0
9912 1 2 0 31.801927930037937 26.174286067071417 -2.1339871458597504 0 0 0
7006 1 1 0 37.24763938075331 24.938541358976394 -1.6201323191414296 0 0 0
9918 1 2 0 37.334188831949554 26.538423498236202 -2.0472608292269623 0 0 0
9917 1 2 0 41.3188628255355 24.589028585170055 -2.090344510843491 0 0 0
7009 1 1 0 42.62030864074157 25.469521801332043 -1.6244094436828265 0 0 0
9920 1 2 0 43.98461269917203 24.757998546454974 -2.1252666071817172 0 0 0
9921 1 2 0 46.66701205398566 25.021941717282388 -2.217353343851993 0 0 0
7011 1 1 0 47.985134746489564 25.70419560649458 -1.6190003311371397 0 0 0
9925 1 2 0 49.43443485581025 25.156923415719913 -2.0475594517073854 0 0 0
7012 1 1 0 50.97220475891779 25.26773897804157 -1.6081983426486512 0 0 0
9927 1 2 0 52.045569744143926 26.39519959004111 -1.997413705614814 0 0 0
9936 1 2 0 57.66656306580978 25.946701708906577 -2.186114841748888 0 0 0
7023 1 1 0 62.321549266887736 25.863949712914394 -1.6443238474591153 0 0 0
9943 1 2 0 63.773213370797514 26.21308587286353 -2.1760499168729437 0 0 0
9945 1 2 0 66.33838952883994 26.152803094574807 -2.0907300907618485 0 0 0
7024 1 1 0 67.79250490506222 25.627360433160973 -1.6129755264997672 0 0 0
9949 1 2 0 74.6096411909085 24.65683170647991 -2.164598474168458 0 0 0
7097 1 1 0 74.87880960393187 26.205078167484007 -1.6499922072890825 0 0 0