LAMMPS data file via write_data, version 2 Aug 2023, timestep = 124, units = metal

15492 atoms
2 atom types

8.387384580717566 196.1740284493344 xlo xhi
6.282866379558867 170.00065940420038 ylo yhi
-100 100 zlo zhi

Masses

1 28.085
2 15.999

Atoms # full

9300 1 2 0 9.585679036811067 7.505392492241176 -2.2088649304032155 0 0 0
6618 1 1 0 11.06764786691296 6.933096290355711 -1.6400199931683779 0 0 0
9316 1 2 0 12.555342484485678 7.491458428562624 -2.1839376647217192 0 0 0
6617 1 1 0 13.847143005573145 8.433212261493425 -1.6479233604755328 0 0 0
9314 1 2 0 13.362073259108422 9.8914537458568 -2.243635103739015 0 0 0
9298 1 2 0 8.648902577098802 11.481828611266389 -2.2424423669696933 0 0 0
6616 1 1 0 12.926939127274927 11.356239601233387 -1.648270002205615 0 0 0
13072 1 2 0 13.887147781369842 8.35784399243231 -1.2457081818120027e-07 0 0 0
9317 1 2 0 15.42929376765539 8.191438931013924 -2.183473672488947 0 0 0
6819 1 1 0 16.98067152139161 7.739653110826373 -1.6457081713596913 0 0 0
9616 1 2 0 18.39044050836578 8.562294587686951 -2.146108156620588 0 0 0
9618 1 2 0 18.741900909297733 11.119998867868683 -2.171784095347476 0 0 0
13274 1 2 0 16.953730896903437 7.84937180150114 -1.2046555297016354e-07 0 0 0
6820 1 1 0 19.534858718461216 9.746353172731622 -1.6468503144113813 0 0 0
9633 1 2 0 24.081618120783393 6.624285436450751 -1.629663581205674 0 0 0
9619 1 2 0 21.200241016920323 9.773208413779221 -2.1531639920827392 0 0 0
6825 1 1 0 22.85422491194997 9.933938947947045 -1.6366641799846409 0 0 0
9627 1 2 0 24.044702452693652 8.968309718603868 -2.346634789336078 0 0 0
9626 1 2 0 23.660129968578612 11.374616287865457 -1.9711003852599998 0 0 0
6829 1 1 0 25.150139683108033 7.948634518575692 -1.5830604434910618 0 0 0
9634 1 2 0 26.801773768443006 8.091397865763193 -2.121953957192584 0 0 0
6832 1 1 0 28.507847652081367 7.967935906368938 -1.6103825568614742 0 0 0
9638 1 2 0 28.754954085049167 6.410374188270648 -2.070387926784552 0 0 0
9639 1 2 0 30.06973352306749 8.666743744491344 -2.087518689005538 0 0 0
6845 1 1 0 34.91629658885003 8.236674939060306 -1.6425775660881081 0 0 0
9660 1 2 0 35.342405913277815 6.684112754198026 -2.119384241454909 0 0 0
6842 1 1 0 31.693091525203453 9.138857712244343 -1.6168699893255318 0 0 0
9652 1 2 0 31.878837868457264 10.747123468929692 -2.017607378421502 0 0 0
9654 1 2 0 33.28084927505375 8.564687025757557 -2.127413703441154 0 0 0
13300 1 2 0 34.895082706302816 8.408325379364937 -5.632892896119598e-08 0 0 0
6848 1 1 0 40.67594822654221 7.94649061535842 -1.6486921592735766 0 0 0
9665 1 2 0 40.68720633913068 6.360309927740268 -2.1928932347075967 0 0 0
9656 1 2 0 36.33550030671592 9.114387229325716 -2.144797396591375 0 0 0
6843 1 1 0 37.905340375839955 9.59092490907528 -1.6499616666052073 0 0 0
9657 1 2 0 39.22885077862001 8.64763423195685 -2.159171394498749 0 0 0
9655 1 2 0 38.331395347329845 11.13482917409154 -2.1877685165449914 0 0 0
13303 1 2 0 40.711949002990714 7.980755944535127 1.0030982977811927e-09 0 0 0
13298 1 2 0 37.897507777811 9.566858023089475 1.9521034999489727e-08 0 0 0
6858 1 1 0 46.38515966491952 7.7519452133185744 -1.6466992741463697 0 0 0
6849 1 1 0 43.619485390701186 9.228961646526232 -1.6477388533049009 0 0 0
9664 1 2 0 42.11725432758446 8.672585460418984 -2.1868372710934727 0 0 0
9667 1 2 0 44.939100696770794 8.364414400312803 -2.2003232813563534 0 0 0
9666 1 2 0 44.01973501637089 10.741351236268532 -2.2056996252613916 0 0 0
13304 1 2 0 43.56861813664158 9.193781820798025 -2.3412677569387332e-07 0 0 0
9681 1 2 0 47.824312182841155 8.390333206250384 -2.2127003850704763 0 0 0
9684 1 2 0 50.57937823075002 7.803318575209295 -2.197075542570114 0 0 0
6864 1 1 0 51.89792960863021 6.920847187355643 -1.650410269623411 0 0 0
6859 1 1 0 49.348647470352454 8.8025509026364 -1.6493718010191325 0 0 0
9683 1 2 0 49.663438844525864 10.33525183100667 -2.2107810524308555 0 0 0
13314 1 2 0 49.33575409763284 8.766135098782268 -5.407816457531965e-07 0 0 0
6866 1 1 0 54.78990069159951 8.100813047205486 -1.6471538009389244 0 0 0
9691 1 2 0 53.36875989129475 7.45334032143571 -2.2190978109551196 0 0 0
6876 1 1 0 57.45349597320266 6.465327424270379 -1.650013988248948 0 0 0
9696 1 2 0 56.198757679626965 7.411107127986394 -2.2081474340441574 0 0 0
9693 1 2 0 54.7842307367395 9.64323653782767 -2.227218712026318 0 0 0
6865 1 1 0 55.053165731566736 11.15806404398377 -1.6477099533872681 0 0 0
13331 1 2 0 57.497961496420054 6.470790638558415 -3.44475975354962e-07 0 0 0
9695 1 2 0 56.52025065575595 11.644503342402663 -2.246520335999896 0 0 0
13320 1 2 0 55.06644563843635 11.192355037006616 -1.067088919754957e-07 0 0 0
13321 1 2 0 54.79618033024644 8.04372985432672 1.4043279683473045e-07 0 0 0
9710 1 2 0 58.96023436713323 7.004373574895986 -2.1848949083875513 0 0 0
6875 1 1 0 60.47839706820096 7.521901033841563 -1.6512077190731616 0 0 0
9711 1 2 0 61.70276723834679 6.524921290586008 -2.2218528742153496 0 0 0
9703 1 2 0 60.89718328547349 9.05589946855639 -2.1868539746995395 0 0 0
6870 1 1 0 60.70251672339847 10.62693651523546 -1.6465695777620448 0 0 0
9701 1 2 0 59.17475482744465 11.001205813975213 -2.1875251135289546 0 0 0
9717 1 2 0 66.96006657598976 7.060024219798394 -2.2414859209928215 0 0 0
6879 1 1 0 68.04107497835305 8.16403916193418 -1.6497370132603497 0 0 0
9714 1 2 0 67.52579561629067 9.660527389051378 -2.199301132138642 0 0 0
6877 1 1 0 67.65719108671735 11.23241593669596 -1.6457498796737864 0 0 0
13334 1 2 0 68.0584943890211 8.186034839456036 -1.4141555851630169e-06 0 0 0
9718 1 2 0 69.53248769065836 7.64552302843608 -2.193980006924947 0 0 0
6888 1 1 0 71.10327076122952 7.526036187935857 -1.6483340882809825 0 0 0
9730 1 2 0 71.86291678618575 8.881584529631843 -2.2290602604545593 0 0 0
6887 1 1 0 72.46087962375347 10.312006047540818 -1.6478986696764024 0 0 0
9731 1 2 0 73.983231147895 10.437290845343085 -2.2489319730931823 0 0 0
9726 1 2 0 71.70472280027633 11.675621534442927 -2.212724372711586 0 0 0
13343 1 2 0 71.118270264226 7.483519879646891 -9.959510689158682e-07 0 0 0
9743 1 2 0 75.71118872271357 6.921962628623242 -2.1431588050794943 0 0 0
6895 1 1 0 76.81967272831413 8.026552903123852 -1.644837867523585 0 0 0
9744 1 2 0 78.2962314772406 7.507587933216797 -2.2015879206894 0 0 0
6902 1 1 0 79.64406810283407 8.290852225292813 -1.6408052534980841 0 0 0
6891 1 1 0 75.4937062883613 10.6762058159287 -1.6526420339584826 0 0 0
9737 1 2 0 76.4540316370966 9.491757632445983 -2.276618259544329 0 0 0
9752 1 2 0 79.44027738897461 9.852776316744347 -2.126179743625899 0 0 0
13357 1 2 0 79.6796741878572 8.208795339411093 -3.0391440310633695e-07 0 0 0
13346 1 2 0 75.46951501260338 10.70144016384622 -1.5517471296019795e-07 0 0 0
9755 1 2 0 81.07697908802609 7.634600351970937 -2.1636602949585653 0 0 0
6908 1 1 0 85.33900102457463 8.222146776994085 -1.6374104258877116 0 0 0
9764 1 2 0 85.35443400186111 6.660061898375736 -2.208992682395971 0 0 0
6900 1 1 0 80.50947332750991 11.014453529465346 -1.641863146242322 0 0 0
9753 1 2 0 81.93708332881157 10.610300970733126 -2.3561135469859003 0 0 0
6905 1 1 0 83.35936079596787 10.262392443403048 -1.6339834587403568 0 0 0
9760 1 2 0 83.81710263072205 8.746433668436104 -2.0742910291649386 0 0 0
9759 1 2 0 84.47703362841935 11.40755093608106 -2.129356468928778 0 0 0
13355 1 2 0 80.59229289158041 11.142552112311902 -3.475959150065677e-07 0 0 0
13360 1 2 0 83.20956876920393 10.322221501839355 -6.670536089899451e-07 0 0 0
13363 1 2 0 85.58200186892043 8.167499367397049 9.137044080491968e-09 0 0 0
6919 1 1 0 90.24881661067954 6.345194096730623 -1.533940095182349 0 0 0
9779 1 2 0 90.14242861134097 7.850070206784783 -2.276452643791524 0 0 0
9765 1 2 0 86.36132696385067 9.347943175096228 -2.310423008607044 0 0 0
6913 1 1 0 87.20927211381932 10.56317309103848 -1.5219336065434963 0 0 0
9773 1 2 0 88.66384525021108 9.84853421487425 -1.418120303256988 0 0 0
6918 1 1 0 90.20289615777095 9.355802797348327 -1.5174100256777348 0 0 0
9780 1 2 0 90.95934726884343 10.659429893013565 -2.2418529994439322 0 0 0
13368 1 2 0 86.56418247880828 10.797517239951548 6.108238456495271e-07 0 0 0
6922 1 1 0 93.35774995492612 6.521675682369915 -1.5309084354230313 0 0 0
9784 1 2 0 93.31919947361847 8.0577630355827 -2.208884030448992 0 0 0
9783 1 2 0 93.49020108365346 10.973957950696718 -2.1611770021600583 0 0 0
6920 1 1 0 94.05272111792588 9.469686615878263 -1.6441215680953756 0 0 0
9785 1 2 0 95.59473161160982 9.237952972334323 -2.1912422192740117 0 0 0
13375 1 2 0 93.97580073120622 9.523945629121108 -3.516983443742323e-07 0 0 0
9792 1 2 0 98.26045751256244 8.766910937227578 -2.2549666948194393 0 0 0
6929 1 1 0 98.82896665317617 7.3343060262240245 -1.6452987212199937 0 0 0
6503 1 1 0 101.87398175856121 7.1738743737727395 -1.6490188920559878 0 0 0
9126 1 2 0 100.32990118549394 6.916906735386894 -2.209288422148386 0 0 0
6925 1 1 0 97.06530470670123 9.746683218885249 -1.6463585030437105 0 0 0
9791 1 2 0 97.24509323152101 11.260687727769016 -2.2508065104236525 0 0 0
9114 1 2 0 100.77907605697169 10.84696690003053 -2.186091584059541 0 0 0
6497 1 1 0 102.17439137834579 10.116425547341787 -1.6476411300585356 0 0 0
13380 1 2 0 97.13544574298493 9.757852495229164 -3.8196053463206805e-07 0 0 0
13384 1 2 0 98.87440697943734 7.423344780100797 4.12646410399393e-08 0 0 0
12958 1 2 0 101.85521600347414 7.165692861451884 -3.5586611394623443e-07 0 0 0
9310 1 2 0 11.416505024653262 11.752655181676356 -2.2300894636776523 0 0 0
6613 1 1 0 9.954100287556116 12.307024623396645 -1.6456135093422217 0 0 0
9309 1 2 0 9.673136298005366 13.847207015134236 -2.169231967939848 0 0 0
6615 1 1 0 10.138054600396577 15.343111979944238 -1.643730418411427 0 0 0
9311 1 2 0 8.972483783959264 16.4094024752508 -2.2036545877496616 0 0 0
9313 1 2 0 11.69218284948164 15.533619612181717 -2.2203633732752945 0 0 0
6654 1 1 0 13.24241470328461 15.786223592653917 -1.6505358579700997 0 0 0
13068 1 2 0 9.991541853837562 12.21657446288896 -1.8891101063524853e-08 0 0 0
9315 1 2 0 14.155800169144332 12.301974731468757 -2.2162965107654187 0 0 0
9374 1 2 0 16.77539038214816 13.118348551204098 -2.2151765211069443 0 0 0
6821 1 1 0 18.288589632241646 12.632531920164828 -1.6477411778526982 0 0 0
9372 1 2 0 14.509105016781534 14.836787893616027 -2.1806289484508072 0 0 0
6655 1 1 0 15.223412659073169 13.427194054607568 -1.6448220283485342 0 0 0
13110 1 2 0 15.312830073849627 13.433174957787442 -1.5963758304021658e-07 0 0 0
9620 1 2 0 19.534725723794857 13.57237177832064 -2.216166238453974 0 0 0
9628 1 2 0 24.592774167610127 13.674626911135272 -2.2582168306359818 0 0 0
6828 1 1 0 20.448887080024193 14.831388151044177 -1.647807261860325 0 0 0
9630 1 2 0 22.01347028972337 14.809500487497544 -2.2337587967141332 0 0 0
6827 1 1 0 23.582993422872267 14.8393644092429 -1.647004752959778 0 0 0
9631 1 2 0 24.41305790110633 16.179099766760945 -2.1782790485683696 0 0 0
9632 1 2 0 19.59081941515126 16.12773637901182 -2.2278930480250905 0 0 0
13282 1 2 0 23.46584471034582 14.740770084225613 -8.529928176077237e-07 0 0 0
13283 1 2 0 20.49280424305418 14.831322863735716 -7.209373683488111e-07 0 0 0
9629 1 2 0 26.70105588407356 11.985065128897777 -2.186328785594376 0 0 0
6826 1 1 0 25.08487053519637 12.224183605347951 -1.6346310761577276 0 0 0
6838 1 1 0 28.1913633250748 12.52349233697787 -1.5364275761904416 0 0 0
9648 1 2 0 29.70456144670836 12.21059686957391 -2.244166758197961 0 0 0
9647 1 2 0 28.18616327113536 14.165419063023622 -1.5530962063958433 0 0 0
6840 1 1 0 25.85107952601145 16.81000742521852 -1.626718911957934 0 0 0
9649 1 2 0 27.26790919143968 16.38714255678906 -2.368251972245599 0 0 0
6839 1 1 0 28.56362477416591 15.759108564448464 -1.5495462237605426 0 0 0
9650 1 2 0 30.012509498900126 16.194831751924692 -2.2433570320282574 0 0 0
13281 1 2 0 25.27093930375256 12.232076178376067 -2.6327892327917827e-07 0 0 0
6841 1 1 0 31.294781708613638 12.25913195066205 -1.631775901485648 0 0 0
9653 1 2 0 32.48274224041738 13.368222200516554 -2.157798640106809 0 0 0
6846 1 1 0 33.49412544905965 14.663122605416467 -1.6475941939573495 0 0 0
9661 1 2 0 35.12000331883406 14.843670500546443 -2.165867967058441 0 0 0
6936 1 1 0 31.40439187781308 16.919946699816734 -1.6510875703764467 0 0 0
9662 1 2 0 32.720392013347485 16.045941736329933 -2.181897877912989 0 0 0
13391 1 2 0 31.420299864643795 16.928863800230644 -1.4536269488856486e-07 0 0 0
13296 1 2 0 31.152314134247977 12.518031511567505 -2.6094184270192473e-07 0 0 0
6844 1 1 0 38.77159782339308 12.660949181739289 -1.6453076396793525 0 0 0
6847 1 1 0 36.74663959449724 15.01886647345077 -1.6426630833950555 0 0 0
9658 1 2 0 37.51855675406929 13.634619209460471 -2.152165841327686 0 0 0
9659 1 2 0 40.239777089796 13.305327737870027 -2.199269293805892 0 0 0
9663 1 2 0 37.79326105299372 16.267121451462966 -2.167308290345921 0 0 0
13299 1 2 0 38.87093384673639 12.619884597331449 -4.963274166171418e-07 0 0 0
13302 1 2 0 36.65982696564798 15.15665730516241 -1.309983569826269e-07 0 0 0
9668 1 2 0 42.94850171909723 13.048001943577507 -2.228714969819048 0 0 0
6850 1 1 0 44.29080585383343 12.280491232224483 -1.6476287468689768 0 0 0
9669 1 2 0 45.712483898935936 12.978711019388538 -2.2041622539457784 0 0 0
6851 1 1 0 41.698296202964286 13.958746723945547 -1.6482007230471538 0 0 0
9670 1 2 0 42.20695402939371 15.463678772145695 -2.1718507607819806 0 0 0
6937 1 1 0 42.171166816335806 17.050200635770693 -1.6439106148798204 0 0 0
6860 1 1 0 49.7459517222292 11.89534557477176 -1.6481630319590583 0 0 0
13315 1 2 0 49.75166826718735 11.904914742217233 -1.0301735082007353e-06 0 0 0
9685 1 2 0 48.42293648707145 12.731288586442213 -2.2091381078631547 0 0 0
9686 1 2 0 51.15060103681787 12.589516511656187 -2.216225915527428 0 0 0
6861 1 1 0 47.15062473114434 13.649611078058426 -1.6487143789213135 0 0 0
9687 1 2 0 47.420243426886024 15.20586512368379 -2.1949399730869987 0 0 0
6939 1 1 0 47.64806984485142 16.772580807604193 -1.6479811509885351 0 0 0
9817 1 2 0 51.778873476746355 16.90792113926179 -2.20681045488531 0 0 0
13316 1 2 0 47.1185102403091 13.650068519238454 -2.1646686255553082e-07 0 0 0
13394 1 2 0 47.70108294590383 16.782608445813253 -1.8398950676855172e-07 0 0 0
9694 1 2 0 53.831578537197544 12.10446721872961 -2.232711094379497 0 0 0
6871 1 1 0 58.00744644516404 12.039292462154433 -1.6482004050738515 0 0 0
6867 1 1 0 52.63420123650014 13.089399900647207 -1.648330148867417 0 0 0
9697 1 2 0 53.01474533977636 14.598577925258923 -2.2153496356766635 0 0 0
6943 1 1 0 53.14242355040318 16.15182459237533 -1.6496549217597074 0 0 0
9818 1 2 0 54.53443784734305 16.8933723495504 -2.2243805209083662 0 0 0
6946 1 1 0 56.09702449223989 16.988632712889416 -1.6436990156852629 0 0 0
9708 1 2 0 56.869173203922784 15.61763126963427 -2.1692861867533675 0 0 0
13401 1 2 0 56.02375217387888 17.09606502838637 -3.2549136878244327e-07 0 0 0
13398 1 2 0 53.17987820257947 16.1730449986331 -2.127856776334825e-07 0 0 0
9702 1 2 0 61.84414484317217 11.739693231211051 -2.195630052159083 0 0 0
6873 1 1 0 58.32002325558997 15.027043036586424 -1.6451348257316418 0 0 0
9704 1 2 0 58.44425792127207 13.507677650538561 -2.261803874584953 0 0 0
9705 1 2 0 61.852226266072876 14.507542478446995 -2.2447101344457066 0 0 0
6872 1 1 0 62.60081036279133 13.143659304144224 -1.6501232808051358 0 0 0
9707 1 2 0 59.59702214007236 15.937644827288304 -2.1810873026700817 0 0 0
6874 1 1 0 61.17997786331678 15.899200261091085 -1.6461104587069193 0 0 0
9715 1 2 0 69.10629331193667 11.750779269585259 -2.2269784505203667 0 0 0
9713 1 2 0 66.55342387491761 12.342009497955802 -2.211879385862973 0 0 0
9706 1 2 0 64.16103157454215 13.306141651586954 -2.2027220767108227 0 0 0
6878 1 1 0 65.69069370654282 13.660587829449106 -1.649180823880675 0 0 0
9716 1 2 0 66.24619228622376 15.170757574433061 -2.1740547514316226 0 0 0
6886 1 1 0 67.17364618645135 16.489210045195545 -1.6489909638555058 0 0 0
9727 1 2 0 68.73765638537542 16.245348546581397 -2.189241954253744 0 0 0
13341 1 2 0 67.11656626849712 16.513342221715597 -5.03682362127777e-07 0 0 0
6884 1 1 0 70.41952276838327 12.548322628313022 -1.6458084201684626 0 0 0
6885 1 1 0 70.18572197908516 15.620322499153243 -1.6501992591445593 0 0 0
9725 1 2 0 70.427897250503 14.087307445712959 -2.244902748228414 0 0 0
9728 1 2 0 71.4582114079215 16.503180600637695 -2.2412138525301954 0 0 0
9740 1 2 0 74.23372777087816 16.846016631630707 -2.2791014923672868 0 0 0
13339 1 2 0 70.41702884117315 12.59911517138996 -7.588341655192023e-08 0 0 0
13340 1 2 0 70.16872220158993 15.611742987813695 -4.7164667229352817e-07 0 0 0
9736 1 2 0 76.1263356304527 12.048429802747473 -2.3016958755272663 0 0 0
6892 1 1 0 76.55227406130071 13.48427001851785 -1.637338412998007 0 0 0
9739 1 2 0 77.97860491097279 14.033518843561243 -2.2735840884949754 0 0 0
6901 1 1 0 79.47760296794159 13.831119773158548 -1.648214158746245 0 0 0
9751 1 2 0 80.0199132012564 12.418877608075949 -2.3005370182933227 0 0 0
9738 1 2 0 75.42579986842223 14.594706553504022 -2.078467445672115 0 0 0
6894 1 1 0 75.6136803193188 16.185659121437354 -1.6502197510659267 0 0 0
9742 1 2 0 77.11277337847719 16.66531901794349 -2.266807955378342 0 0 0
13349 1 2 0 75.64428336413953 16.375745397786247 -5.0469993851836626e-08 0 0 0
13356 1 2 0 79.44815131093664 13.805363290018743 -5.441875989866847e-07 0 0 0
6906 1 1 0 84.25221900475547 12.979811330405793 -1.638914248201571 0 0 0
9754 1 2 0 80.5256811107188 15.007778451682487 -2.1872592797327575 0 0 0
6907 1 1 0 82.09448949174347 14.878270377261382 -1.6492211963617094 0 0 0
9761 1 2 0 82.78072841818366 13.475570682044081 -2.2149327703402077 0 0 0
9763 1 2 0 83.09162555577204 16.05299212992797 -2.2322700470272023 0 0 0
9762 1 2 0 85.49924343237188 13.922135501731944 -2.1770058881875967 0 0 0
13362 1 2 0 82.06980726246604 14.916013995939293 5.456061649524115e-07 0 0 0
9772 1 2 0 87.43350084777666 12.08619354058187 -2.205711303146765 0 0 0
6914 1 1 0 87.05501977247381 13.622881543479348 -1.6447856984820841 0 0 0
9774 1 2 0 87.927069044937 14.9350303608813 -2.221132687296054 0 0 0
6950 1 1 0 87.96401761251519 16.51267384066814 -1.6509892904326213 0 0 0
13405 1 2 0 88.00451698624437 16.493182045644463 -5.008315469812314e-07 0 0 0
6921 1 1 0 92.07588081348315 11.770653508873679 -1.6525499489168978 0 0 0
6927 1 1 0 92.27706095220249 14.950273137087757 -1.6457064780282018 0 0 0
9786 1 2 0 91.77188686857811 13.367634327210519 -2.16047650722709 0 0 0
9794 1 2 0 93.83053156975636 14.84333175012088 -2.2234711187678844 0 0 0
6928 1 1 0 95.36944021294242 14.940526083000844 -1.6570738271445524 0 0 0
9793 1 2 0 96.38084113825008 13.7624719836491 -2.2439234557481886 0 0 0
9795 1 2 0 91.68387784783685 16.509097674003897 -2.092057702863229 0 0 0
9796 1 2 0 95.87008785168165 16.393035566245445 -2.2954769662528998 0 0 0
6926 1 1 0 97.55850632455757 12.760273745529474 -1.6469206913072914 0 0 0
9122 1 2 0 99.09538768891605 13.081855349733846 -2.2137270362585166 0 0 0
6501 1 1 0 100.50156937194873 12.400933724855319 -1.6497376339880143 0 0 0
9120 1 2 0 101.853747832508 13.225561841753258 -2.173646395507515 0 0 0
6500 1 1 0 102.04902117308042 14.780985221388397 -1.6456820687729063 0 0 0
9322 1 2 0 98.4273087828475 16.2992586573269 -1.6037989139838118 0 0 0
9121 1 2 0 100.72606776409678 15.508056613041813 -2.301432857803252 0 0 0
6620 1 1 0 100.00582075210033 16.76905133313701 -1.5628877207426843 0 0 0
13075 1 2 0 100.51668429647252 16.903383992457098 -1.031289568304361e-06 0 0 0
9373 1 2 0 13.642815149209325 17.245411423148347 -2.286795138600851 0 0 0
9383 1 2 0 12.720119712093076 19.694460559881676 -2.1675799163523033 0 0 0
6660 1 1 0 9.37756178349614 21.730987327162502 -1.6487643628885333 0 0 0
6661 1 1 0 12.38915806796112 21.220768661146547 -1.6470376700683391 0 0 0
9381 1 2 0 10.90134970390737 21.5727921135437 -2.2672024224156697 0 0 0
9384 1 2 0 13.620839250100516 22.173672450342764 -2.2429142453213404 0 0 0
13116 1 2 0 12.349283216779675 21.334929015278668 -4.180958844263924e-07 0 0 0
9370 1 2 0 8.39793379285868 20.514715175537418 -2.1873174095679024 1 0 0
6934 1 1 0 19.218361486942072 17.618681624720566 -1.6453171135381175 0 0 0
6662 1 1 0 13.93861723132427 18.717557979222804 -1.6454016259550746 0 0 0
6935 1 1 0 16.86690014466197 19.452803900959285 -1.6536984600915576 0 0 0
9385 1 2 0 15.363576515017085 19.241948867140508 -2.271049087310502 0 0 0
9804 1 2 0 17.790744251901316 18.197621322058254 -2.2375643770925238 0 0 0
9806 1 2 0 17.31848871209144 20.928691661284184 -2.2540383218314943 0 0 0
6996 1 1 0 18.33339445856254 22.07871733016678 -1.6459310372552436 0 0 0
13451 1 2 0 18.225363210291803 21.988429415749707 -7.340197390907231e-07 0 0 0
6956 1 1 0 21.795711144575705 18.961598812919263 -1.4760937721271228 0 0 0
9805 1 2 0 20.39500997513261 18.62148367488389 -2.253334772255062 0 0 0
9834 1 2 0 23.164001183788262 18.56455562295801 -2.307394277814893 0 0 0
6955 1 1 0 24.495531299883176 19.31817238433179 -1.6425276664929438 0 0 0
9898 1 2 0 19.818419876056744 21.77679138113129 -2.2975965658976873 0 0 0
9836 1 2 0 21.972592664159205 20.577412448524917 -1.2974387119717283 0 0 0
6998 1 1 0 21.225871148272095 22.0134127415155 -1.4914456800946847 0 0 0
9835 1 2 0 24.742773201689925 20.804133594188787 -2.2868213456073 0 0 0
13410 1 2 0 24.303333942274346 19.435306131147964 -6.930887004656378e-07 0 0 0
9651 1 2 0 25.825296095579624 18.422308999336458 -1.9895027933202374 0 0 0
6961 1 1 0 25.733547428829375 21.96488049730509 -1.6504802651723287 0 0 0
9844 1 2 0 27.23377784012833 21.713967397727217 -2.294807037077638 0 0 0
6962 1 1 0 28.748141370679942 21.638932648772787 -1.6429432321769069 0 0 0
9842 1 2 0 29.615958431265646 20.33412743320709 -2.178077459018319 0 0 0
13417 1 2 0 28.661336720783634 21.585380172561763 -3.7855372683727674e-07 0 0 0
13416 1 2 0 25.84532312280691 21.91393832719284 -2.9761436325602712e-08 0 0 0
9807 1 2 0 31.55028812775992 18.48189104203327 -2.226114050899194 0 0 0
6960 1 1 0 31.1643461138267 19.996176533354845 -1.6481845935485442 0 0 0
9843 1 2 0 32.16221864736834 21.205426793907048 -2.215239775710792 0 0 0
6965 1 1 0 33.10565089392543 22.457945064709367 -1.6511054371711833 0 0 0
9849 1 2 0 34.60827750768008 22.107463814447943 -2.2535314792923495 0 0 0
13415 1 2 0 31.244253196803864 19.972328366425575 -1.6659057640454213e-08 0 0 0
6938 1 1 0 38.97715514218688 17.374697456744588 -1.64725523997294 0 0 0
9808 1 2 0 40.596524964379554 17.42522081501236 -2.145461572854485 0 0 0
9810 1 2 0 38.45410051922814 18.830585820602018 -2.245772492263118 0 0 0
6963 1 1 0 38.46562212584795 20.36625607718469 -1.6465430439777344 0 0 0
6964 1 1 0 36.12973777124987 22.235549154887792 -1.6443995137071346 0 0 0
9847 1 2 0 37.00634097962826 20.942869780538448 -2.1769514296584607 0 0 0
9848 1 2 0 39.74232782098288 21.292276944002513 -2.1945166458366243 0 0 0
13418 1 2 0 38.533829984231744 20.337426494633856 -5.599857400071607e-07 0 0 0
9809 1 2 0 43.541745137437076 17.969624267619686 -2.161488968406292 0 0 0
9811 1 2 0 46.300468216214426 17.605359611790306 -2.1769230746087653 0 0 0
6940 1 1 0 45.07322922299001 18.617465833755908 -1.6468384116883406 0 0 0
9813 1 2 0 45.64461219641464 20.15307703234997 -2.127066451460458 0 0 0
9910 1 2 0 44.877610611020145 22.652526190248203 -2.198175098988316 0 0 0
7005 1 1 0 46.16304336819971 21.717971514078876 -1.6481871458785435 0 0 0
9812 1 2 0 49.09843593907083 17.451528826070938 -2.192962073943006 0 0 0
6944 1 1 0 50.61490547370185 17.952518601412635 -1.6480860157600805 0 0 0
9819 1 2 0 51.1744612875411 19.42680216787829 -2.2036460507720066 0 0 0
9911 1 2 0 47.66557229177886 22.435763638024813 -2.133212570779203 0 0 0
9913 1 2 0 50.278251052835415 21.830799497486048 -2.1569108779964044 0 0 0
7007 1 1 0 51.5804336076086 20.94615972616947 -1.6450895120062847 0 0 0
13399 1 2 0 50.55616522433293 17.984119147240058 -8.194380122947976e-07 0 0 0
9821 1 2 0 57.03106367877995 18.246177709181275 -2.2229965894449966 0 0 0
9914 1 2 0 53.04584318683703 21.56629435090049 -2.231867339852215 0 0 0
7011 1 1 0 54.40332502212918 22.366025604765113 -1.6395872343610927 0 0 0
9919 1 2 0 55.8633915295776 21.77121539203521 -2.1903656960214426 0 0 0
7012 1 1 0 57.437421354611004 21.972469898394863 -1.6476240777292979 0 0 0
13467 1 2 0 57.36578723087831 22.064085500179345 -2.0510231470094145e-07 0 0 0
9709 1 2 0 61.9648249914217 17.295291217029888 -2.139296060022605 0 0 0
9862 1 2 0 58.16840100581513 20.64065411030047 -2.2407353790737647 0 0 0
6972 1 1 0 58.33373460948974 19.118555067711473 -1.6484369043619618 0 0 0
9860 1 2 0 59.849591669689055 18.770790186685634 -2.216866980414639 0 0 0
6971 1 1 0 61.410715768123545 18.811032373089038 -1.6476279460770507 0 0 0
9861 1 2 0 62.276786971804064 20.13284447455306 -2.2128353474141274 0 0 0
6974 1 1 0 63.58506003624747 21.041870450687664 -1.648944337999906 0 0 0
9729 1 2 0 66.68031437886906 18.018539438514445 -2.192427233018332 0 0 0
6973 1 1 0 66.37182342881451 19.590474888447652 -1.645743792537563 0 0 0
9863 1 2 0 64.88543201986734 20.130570353784563 -2.1671379896551324 0 0 0
9864 1 2 0 67.42135905537216 20.775147391282708 -2.2013750734453024 0 0 0
6978 1 1 0 68.13493703642818 22.180676380090524 -1.6488548664036065 0 0 0
13428 1 2 0 66.43970907475693 19.539042849464202 -5.029875350269659e-07 0 0 0
9865 1 2 0 63.64569121611119 22.65297344568001 -2.1810358649266632 0 0 0
6893 1 1 0 72.77460046497713 17.317088525117583 -1.6460296254348608 0 0 0
9741 1 2 0 72.59969732539543 18.867865516759913 -2.1733799011201427 0 0 0
6947 1 1 0 73.25013792758239 20.289260488996295 -1.6546959524668132 0 0 0
9871 1 2 0 69.67259221218943 22.095138995120163 -2.2480131012083002 0 0 0
6979 1 1 0 71.15258886340828 22.47462965096741 -1.6469005818335087 0 0 0
9823 1 2 0 72.24319006664922 21.424318608458197 -2.271547751162174 0 0 0
13402 1 2 0 73.29376301115931 20.293203209228682 -5.456697073638895e-07 0 0 0
6948 1 1 0 77.86217547995746 17.957954059572963 -1.5022133428318423 0 0 0
13403 1 2 0 78.40841659812365 17.457634191283987 -4.593118294478624e-07 0 0 0
9822 1 2 0 74.7433840529371 20.620077329474146 -2.3167699272852826 0 0 0
9824 1 2 0 76.48683191253566 18.880490566610593 -1.367687332967264 0 0 0
9825 1 2 0 79.11350051230376 18.770630218617658 -2.2489001678587193 0 0 0
6949 1 1 0 76.17461817272785 20.47662257429967 -1.4997160641762364 0 0 0
9826 1 2 0 77.6129833768513 21.0589423252586 -2.1288088613714264 0 0 0
7014 1 1 0 77.88248687141025 22.617877045056467 -1.6275881060841797 0 0 0
13404 1 2 0 75.93866910103513 21.16439523156623 -9.62891982947205e-09 0 0 0
6951 1 1 0 83.03473859022233 17.591856162069302 -1.6386837903009035 0 0 0
6982 1 1 0 80.56623931568477 19.343382902648905 -1.6351280663377996 0 0 0
9830 1 2 0 81.57470148072609 18.139178746261905 -2.132245744046333 0 0 0
9829 1 2 0 84.26868689510623 18.47108908067476 -2.271836665357461 0 0 0
9877 1 2 0 81.28903324265924 20.744946588141776 -2.2102911630826756 0 0 0
7013 1 1 0 82.4403764049526 21.838749218147157 -1.6457399966189574 0 0 0
9923 1 2 0 84.00875769704574 21.7294560133645 -2.2242292288695333 0 0 0
7016 1 1 0 85.5836304131159 21.627702505751447 -1.6472092605052884 0 0 0
13471 1 2 0 85.5233957671512 21.707994751851924 -6.021594564842112e-07 0 0 0
13468 1 2 0 82.49813650055957 21.68169947689692 -4.3130053289228804e-07 0 0 0
13437 1 2 0 80.39545193785423 19.542392297448313 -4.537808855690072e-07 0 0 0
9827 1 2 0 86.68748068382922 17.406189116331003 -2.228562992185473 0 0 0
9828 1 2 0 89.265447877443 17.365919683282712 -2.216087990213087 0 0 0
6953 1 1 0 90.71792590602588 17.913295719382347 -1.6391690025645227 0 0 0
6952 1 1 0 85.79205091947821 18.66953530424478 -1.6480323635055483 0 0 0
9831 1 2 0 86.26243476768748 20.182695086958766 -2.1511051533270398 0 0 0
9832 1 2 0 90.71003460135613 19.61982484980195 -2.0939106384640684 0 0 0
9888 1 2 0 89.30432463555725 22.41771019450209 -2.086957074981591 0 0 0
6989 1 1 0 90.59403510644937 21.32127961890482 -1.6504664181967665 0 0 0
13444 1 2 0 90.56926332175858 21.27436010737898 -3.464613603486084e-06 0 0 0
13408 1 2 0 90.91613987436943 17.98974016952876 -3.7374147268721117e-06 0 0 0
13407 1 2 0 85.83054298741564 18.619336076250228 -8.713178468599959e-07 0 0 0
13409 1 2 0 96.59278292680455 17.54403359857738 -3.0383859298544492e-06 0 0 0
9887 1 2 0 91.98418870650718 22.106382105941815 -2.231078822115429 0 0 0
9890 1 2 0 94.73704279881689 22.374991940950817 -2.218758682760672 0 0 0
6992 1 1 0 96.29408886196184 22.438182309829706 -1.648827566284223 0 0 0
13447 1 2 0 96.22183287456141 22.513919037300607 -3.5046529499083768e-06 0 0 0
6954 1 1 0 97.06632700448806 17.227699833182452 -1.550470879097368 0 0 0
9833 1 2 0 97.41575403026914 18.611479402231044 -2.353195093791847 0 0 0
6990 1 1 0 97.89045262459159 20.032143639858386 -1.6553801235489833 0 0 0
9321 1 2 0 100.49213919893369 18.161468426224296 -2.3002114972432333 0 0 0
6621 1 1 0 100.70627347212934 19.669093636220108 -1.6447743452175787 0 0 0
9889 1 2 0 96.80380739728979 21.03809879924733 -2.3094054493992675 0 0 0
9323 1 2 0 99.3890656490228 20.545903559999196 -2.1239996692131053 0 0 0
9319 1 2 0 102.019187038508 20.3764854771808 -2.3085414701122935 0 0 0
13445 1 2 0 97.85477104848538 19.95401886472304 -2.9685630900376968e-06 0 0 0
13076 1 2 0 100.84078710814839 19.64443084474519 -2.470684679340337e-06 0 0 0
9382 1 2 0 8.784676198342275 23.133387481608185 -2.277272105766573 0 0 0
9450 1 2 0 12.863335732022207 24.64721072869378 -2.0599616161443515 0 0 0
9446 1 2 0 9.198279539184352 25.74106162053987 -2.292550231318933 0 0 0
6704 1 1 0 10.05704296519516 26.973878809284344 -1.645277407907864 0 0 0
9448 1 2 0 11.587724151944462 26.975324796135205 -2.2815310822936605 0 0 0
6705 1 1 0 12.904436088164548 26.236144728965144 -1.633083018806535 0 0 0
13159 1 2 0 10.076783507485866 26.851327444140594 -2.614797250167368e-07 0 0 0
13160 1 2 0 12.86963715284373 26.407718708390004 -2.660609526589921e-07 0 0 0
6706 1 1 0 14.106256464343804 23.632304138583113 -1.6342983499521024 0 0 0
9897 1 2 0 18.019643064305388 23.603221120299313 -2.1673184737683546 0 0 0
13161 1 2 0 14.294090548303359 23.516306803801424 -8.06891212470011e-07 0 0 0