LAMMPS data file via write_data, version 23 Jun 2022, timestep = 7508

15336 atoms
2 atom types

6.265585981810635 196.74490064274184 xlo xhi
3.8392040182047475 172.18235689907473 ylo yhi
-100 100 zlo zhi

Masses

1 28.085
2 15.999

Atoms # full

6525 1 1 0 6.519977914726224 6.052377066415148 -1.6119714158599838 0 0 0
9183 1 2 0 7.041677565642838 4.600653100490025 -2.1614364246117104 0 0 0
9195 1 2 0 12.594916344664126 5.169447260622734 -2.0127451391591955 0 0 0
9237 1 2 0 17.05311121484175 4.96283288236735 -2.131393934032452 0 0 0
9611 1 2 0 24.398375189634702 5.296085213360748 -2.0724158690058005 0 0 0
9632 1 2 0 30.55827905166926 5.946989555004093 -1.8862582372978591 0 0 0
6821 1 1 0 31.29151302779097 4.472015313066123 -1.6111144021375639 0 0 0
9635 1 2 0 32.89709989335199 4.609910922676368 -2.068307976820721 0 0 0
6831 1 1 0 34.50337348180417 4.5278695008254495 -1.6160854941104104 0 0 0
9640 1 2 0 35.58116796087808 5.754737121498228 -1.9676265514885014 0 0 0
9642 1 2 0 40.423337066416615 6.016025252607644 -2.01432349490168 0 0 0
6832 1 1 0 41.111038849686366 4.525300187521695 -1.623537005742543 0 0 0
9653 1 2 0 42.70707853721597 4.2341088047605355 -2.1136338571516107 0 0 0
9660 1 2 0 45.546953347002415 4.732826036336893 -2.123732842530736 0 0 0
6836 1 1 0 46.90333634773191 5.583514714452994 -1.6271524089360814 0 0 0
9661 1 2 0 48.40720534506999 5.042373934066905 -2.1055309933160644 0 0 0
6845 1 1 0 49.81021292000671 4.300712241603405 -1.5983821097733433 0 0 0
9673 1 2 0 51.36858797288328 4.566112620730927 -2.1284848335878537 0 0 0
6844 1 1 0 52.88178851488266 5.070402763346488 -1.6337346519221225 0 0 0
9674 1 2 0 54.42419512801323 4.66312437960914 -2.123966975196174 0 0 0
6846 1 1 0 55.94270522212393 4.178552699290585 -1.6295210959424837 0 1 0
9677 1 2 0 57.468011350950285 4.617647523230259 -2.1426424884507425 0 0 0
6851 1 1 0 58.99186673551494 5.036453536053424 -1.6089495378281775 0 0 0
9685 1 2 0 60.485162014072074 4.477440927580479 -2.1196631841062463 0 0 0
6857 1 1 0 62.068036085745845 4.225898834731387 -1.6270329192789375 0 0 0
9692 1 2 0 63.175234285769086 5.363542517096544 -2.077970587681829 0 0 0
9693 1 2 0 65.91049024204085 6.166545579577396 -2.1351909191798804 0 0 0
6862 1 1 0 67.47539266160396 6.1313836389668985 -1.6451611525162644 0 0 0
9703 1 2 0 68.08294616126265 4.714597019519575 -2.1699285398341916 0 0 0
6870 1 1 0 74.12199909671301 4.8930415019381295 -1.6235202411091085 0 0 0
9717 1 2 0 75.71828160497273 4.907115870057328 -2.103269897536005 0 0 0
6879 1 1 0 77.3207219451079 4.908020198940842 -1.645030261477846 0 0 0
9727 1 2 0 78.2966418347415 6.17404050773493 -2.1082666705397783 0 0 0
6884 1 1 0 84.35118228194204 4.127336877209739 -1.6128475703661256 0 1 0
9736 1 2 0 84.72032641991467 5.694610663349594 -2.107393013104081 0 0 0
6891 1 1 0 89.50830920281977 4.790721397576244 -1.6082777487583013 0 0 0
9751 1 2 0 90.92720776951639 4.1078988420430935 -2.0169283854414246 0 0 0
9760 1 2 0 93.55466309221259 4.667461348016771 -2.1275643270414357 0 0 0
6897 1 1 0 94.56387772879906 5.868940834231392 -1.6271284021492487 0 0 0
9761 1 2 0 96.12417186988777 5.636451480329162 -2.1201210551666634 0 0 0
6901 1 1 0 97.68521830393125 5.810277347722876 -1.6095642823907044 0 0 0
9766 1 2 0 98.90343953432644 4.810103503720301 -2.119113515073371 0 0 0
9184 1 2 0 7.190147795566651 7.453714779528893 -2.1202539052322877 0 0 0
6532 1 1 0 13.105409612145229 6.663443375539542 -1.6240118150495677 0 0 0
9193 1 2 0 12.03723107572171 7.806734596599898 -2.154652795530227 0 0 0
9196 1 2 0 14.692661173682874 6.652729418538407 -2.0811947138536753 0 0 0
6559 1 1 0 16.249333049780603 6.322029960977574 -1.6362061258559821 0 0 0
9236 1 2 0 17.212135350127593 7.546347502133591 -2.1050284169415012 0 0 0
9239 1 2 0 19.622062853443357 8.532374662891048 -2.0692976419278484 0 0 0
9610 1 2 0 22.780381496256997 7.592390277182492 -2.0175322075603463 0 0 0
6808 1 1 0 21.28200014860644 8.356851600986664 -1.6054923111826587 0 0 0
6807 1 1 0 24.34077834362554 6.951083481055205 -1.645618831647968 0 0 0
9612 1 2 0 25.793504615370484 7.836596564448652 -2.051275331185903 0 0 0
9621 1 2 0 28.858597721707618 8.126928121318468 -2.06529308684185 0 0 0
6820 1 1 0 30.44358352995161 7.5942189701134275 -1.6065476918147183 0 0 0
9633 1 2 0 31.951190036796444 8.304395432822671 -2.0483044931648133 0 0 0
9639 1 2 0 34.94505308356745 8.189405218432604 -2.050604730556505 0 0 0
6824 1 1 0 36.28907395938042 7.232509623779293 -1.614554240925509 0 0 0
9638 1 2 0 37.96531141927573 7.453861393936347 -2.0647318081086397 0 0 0
6825 1 1 0 39.66437410270857 7.480184668156291 -1.632422133759051 0 0 0
9657 1 2 0 46.787893424166874 7.185525312065687 -2.0047083937117307 0 0 0
6839 1 1 0 52.664153237929746 8.132676874809311 -1.6230772200623642 0 0 0
9666 1 2 0 52.71000557104991 6.603849680744652 -2.1365180832624007 0 0 0
9669 1 2 0 56.860598524888054 8.557022680304874 -2.141952236312789 0 0 0
6850 1 1 0 58.33945060529984 8.10087022187544 -1.6115995653933881 0 0 0
9683 1 2 0 58.89075338828433 6.620088159518976 -1.9833276016987367 0 0 0
6855 1 1 0 64.36705494993494 6.402923996189 -1.6287042117318633 0 0 0
9691 1 2 0 64.0164818640102 7.902560044603013 -2.143044145228776 0 0 0
6863 1 1 0 69.68150010351097 8.360642185140488 -1.6362372697248837 0 0 0
9702 1 2 0 68.46628446792978 7.357135911283111 -2.1019528542408867 0 0 0
9705 1 2 0 71.18140528977781 7.867216092336233 -2.078938363094904 0 0 0
6869 1 1 0 72.75065064027443 7.744404727540111 -1.6163186337089663 0 0 0
9714 1 2 0 73.43157430224662 6.3208200426193475 -2.0451234848083906 0 0 0
6877 1 1 0 79.18088614146787 7.494260119906489 -1.612129817684841 0 0 0
9728 1 2 0 80.70929371001732 7.944923134305286 -2.093954151329176 0 0 0
9732 1 2 0 83.43631966415397 7.977995527551875 -2.1432319103279975 0 0 0
6883 1 1 0 84.85151684447038 7.311535129781016 -1.6383924597939674 0 0 0
9737 1 2 0 86.08252710464897 8.397013689956044 -2.044948057340359 0 0 0
9748 1 2 0 89.6253686194184 6.3611785408197425 -2.08449469858411 0 0 0
6890 1 1 0 90.00204695354948 7.9040009095150126 -1.6392296259784829 0 0 0
9749 1 2 0 91.50962907178551 8.427651429646746 -2.1024133119086836 0 0 0
9758 1 2 0 93.99225435580036 7.371163131641713 -1.9937716279917794 0 0 0
9764 1 2 0 98.03015742065473 7.37380569354977 -1.9190408859672963 0 0 0
6899 1 1 0 99.00555680500754 8.63397591690112 -1.6104695391210546 0 0 0
9028 1 2 0 100.50649069934667 8.283746305848645 -2.135116431028141 0 0 0
6529 1 1 0 7.793143718829379 8.90202039465786 -1.647525904321311 0 0 0
9190 1 2 0 6.942169807814677 10.24112079046532 -2.121249719476722 0 0 0
9191 1 2 0 9.348880596176844 8.800531328523178 -2.156180078889218 0 0 0
6531 1 1 0 10.888789696045997 8.851193784773741 -1.6014408100123054 0 0 0
9194 1 2 0 11.265122331247037 10.403466897679822 -1.8886111637169234 0 0 0
6561 1 1 0 15.286110759351647 10.650158587947836 -1.578591597559729 0 0 0
9238 1 2 0 16.73108580939348 9.924472601662153 -2.078801670740989 0 0 0
6560 1 1 0 18.00997814430266 8.890449558963747 -1.618796717270476 0 0 0
9613 1 2 0 21.473865789744796 9.912359134056171 -2.09718349829168 0 0 0
6813 1 1 0 27.268693548118105 8.675822021620355 -1.6309462039737592 0 0 0
9620 1 2 0 27.196794989828206 10.325474425625098 -2.0119459598106184 0 0 0
6826 1 1 0 33.484447554828584 8.959114083792608 -1.640780952086334 0 0 0
9643 1 2 0 33.6675567256027 10.552008205795698 -2.134116631743459 0 0 0
6827 1 1 0 41.760833986475696 10.120715624758503 -1.6069798733308138 0 0 0
9641 1 2 0 40.76902919671428 8.759260221811006 -2.041276345269075 0 0 0
9645 1 2 0 43.3548266203307 10.61402813195325 -2.0799618426804747 0 0 0
9658 1 2 0 45.92727323686575 9.793758076750981 -2.0989100724192977 0 0 0
6835 1 1 0 47.11158243860689 8.754218219874616 -1.6253751286459046 0 0 0
9659 1 2 0 48.58509072302122 9.2673604315599 -2.156791298583764 0 0 0
6840 1 1 0 50.04177193380092 9.811349254702458 -1.621233303763065 0 0 0
9664 1 2 0 51.284186477498224 8.859919168315296 -2.0745393621048156 0 0 0
9665 1 2 0 54.065784159260026 8.768280839105781 -2.144324623193171 0 0 0
6841 1 1 0 55.50490716931139 9.29541910244142 -1.6023460113871413 0 0 0
9668 1 2 0 55.43130512176043 10.889626573188146 -1.8841859779843004 0 0 0
9684 1 2 0 59.49423597509267 9.098477435952349 -2.147394638199095 0 0 0
6852 1 1 0 60.6458444038918 10.110354695804698 -1.645519261241844 0 0 0
9687 1 2 0 62.11581594566958 9.696641064154333 -2.1645900138322887 0 0 0
6856 1 1 0 63.61385957663757 9.387164670930746 -1.6424680782964474 0 0 0
9694 1 2 0 64.6369040349086 10.536886424825168 -2.148836433773768 0 0 0
9704 1 2 0 69.38134175113491 9.894389195809524 -2.134999215217187 0 0 0
9715 1 2 0 73.66913594000891 8.991244672152503 -2.1572162920293847 0 0 0
6872 1 1 0 74.55890967108924 10.265201369100218 -1.6443908495559894 0 0 0
9720 1 2 0 76.10692372674765 10.25672215670369 -2.1673945369840224 0 0 0
6878 1 1 0 77.64763707919516 10.212565713696172 -1.6236406803572359 0 0 0
9726 1 2 0 78.3088460820163 8.796226174865856 -2.0642879044785976 0 0 0
6880 1 1 0 82.08436481758186 8.760176945420156 -1.640769856000951 0 0 0
9731 1 2 0 82.26261762288944 10.342710773458407 -2.0994394352828687 0 0 0
9744 1 2 0 88.73618948425693 8.838109997793834 -2.1380787693861665 0 0 0
6887 1 1 0 87.30318611337958 9.498781141991403 -1.6400401310083697 0 0 0
6896 1 1 0 93.08056826980022 8.696298670061546 -1.6191230181856056 0 0 0
9759 1 2 0 93.86963707511383 10.074329578007266 -2.1379270640458916 0 0 0
9763 1 2 0 98.44748213921055 10.072667015229877 -2.1548110423550892 0 0 0
6558 1 1 0 12.23261009958704 11.673451407377586 -1.5887628541311591 0 0 0
9235 1 2 0 11.296703191586039 12.976830207385664 -2.070482755671886 0 0 0
9234 1 2 0 13.715991871866185 11.073751481895197 -2.1030273462238425 0 0 0
9240 1 2 0 15.374816360375265 12.240999289762351 -1.9671018299401906 0 0 0
9623 1 2 0 19.970081208857774 12.24114873255922 -2.0948992965545057 0 0 0
6911 1 1 0 18.93062285931347 13.40565359325831 -1.598854315194213 0 0 0
6814 1 1 0 21.336524199765513 11.463651517938894 -1.6339308411657385 0 0 0
9622 1 2 0 22.70308505211246 12.203344282369827 -2.106179798991435 0 0 0
6816 1 1 0 23.976566827062467 13.090277171666935 -1.6230838061193607 0 0 0
9624 1 2 0 25.403048014946307 12.432715690383533 -2.114653759383931 0 0 0
6815 1 1 0 26.899692682666927 11.938693241460285 -1.622293696032289 0 0 0
9625 1 2 0 27.846864272073827 13.236952514660937 -2.106403507716397 0 0 0
9647 1 2 0 32.87965300953497 13.215351614172015 -2.09390730003648 0 0 0
6828 1 1 0 34.04879903958224 12.105891812598193 -1.6442054983466716 0 0 0
9646 1 2 0 35.60767402080505 12.545020036081171 -2.0649542222261275 0 0 0
6829 1 1 0 37.00322098362239 13.345373089821548 -1.6103109241402738 0 0 0
9648 1 2 0 38.55675768461345 12.972435253407351 -2.1045505392415853 0 0 0
6830 1 1 0 40.15465706599556 12.912441655127127 -1.618129945696871 0 0 0
9644 1 2 0 40.80340480442712 11.431316729282964 -1.9573144874434747 0 0 0
6837 1 1 0 44.970026938634376 11.060324200431818 -1.6401761157934351 0 0 0
9662 1 2 0 45.92416750116119 12.436751369323325 -2.0354558904281226 0 0 0
9667 1 2 0 50.50325317157801 11.323919451777886 -2.0228182757729956 0 0 0
6843 1 1 0 51.53611236679235 12.516804585372023 -1.6160571200921596 0 0 0
9670 1 2 0 53.05850088128663 12.294842314431643 -2.1698972453554157 0 0 0
6842 1 1 0 54.58744014323125 12.25110934268197 -1.608981437856872 0 0 0
9671 1 2 0 55.57122256648227 13.43557031001816 -2.1040500782190503 0 0 0
9688 1 2 0 58.206143464655895 13.24310258294887 -1.9298320431071385 0 0 0
6853 1 1 0 59.76635077460987 13.005716012532321 -1.6063628073882519 0 0 0
9686 1 2 0 60.25734044313584 11.582325241893509 -2.175424913795398 0 0 0
6865 1 1 0 65.6468564690654 11.694484912942025 -1.6325465820402418 0 0 0
9708 1 2 0 65.22272469017791 13.170667920843803 -2.162955974914882 0 0 0
9706 1 2 0 67.1512321181196 11.330044524457508 -2.098522387340529 0 0 0
6864 1 1 0 68.70407101843709 11.299836597365625 -1.6444146773984272 0 0 0
9707 1 2 0 69.39868719733502 12.688393495231443 -2.1535114871910963 0 0 0
9721 1 2 0 71.81593407209984 13.402082179553528 -2.0625743418902083 0 0 0
9719 1 2 0 73.87109474129946 11.663391424772108 -2.111284782482173 0 0 0
6873 1 1 0 73.34214238578996 13.114402513970138 -1.615205961958247 0 0 0
9729 1 2 0 78.54692170293741 11.491001475566916 -2.098106275135199 0 0 0
6882 1 1 0 79.40858337215688 12.793572336283466 -1.6142482438167245 0 0 0
9733 1 2 0 80.99539244392588 12.651656947562623 -1.9639008079799702 0 0 0
6881 1 1 0 82.41380728812011 11.918121569154302 -1.6095439003452694 0 0 0
9734 1 2 0 83.65287165581276 12.897383362616406 -2.1244194387720294 0 0 0
6889 1 1 0 87.6397942481422 12.740026769623515 -1.6115340435418604 0 0 0
9743 1 2 0 87.33521619651194 11.135314824910287 -2.073929022318351 0 0 0
9770 1 2 0 93.89378993383892 12.806748453023364 -2.0500574448185187 0 0 0
6904 1 1 0 94.69541619670913 11.434739797103465 -1.6294953209519465 0 0 0
9765 1 2 0 96.28589413750254 11.608542568927932 -2.071522113153854 0 0 0
6900 1 1 0 97.88287634845469 11.52568382270081 -1.6327897232465622 0 0 0
9275 1 2 0 98.92423273832837 12.73999002592197 -2.083097954590769 0 0 0
9265 1 2 0 6.498424795022421 15.31897607535171 -2.0268889366908445 0 0 0
6580 1 1 0 10.69690694057843 14.474979346301613 -1.6346416813994085 0 0 0
9267 1 2 0 9.268523399619742 15.194857597875313 -2.1455566620586266 0 0 0
9269 1 2 0 12.019462614225557 15.324586942446338 -2.0777170696671123 0 0 0
6642 1 1 0 13.526982677179763 15.749739857670054 -1.6396113964933743 0 0 0
9366 1 2 0 14.761576931810922 14.79637072433734 -2.143146852882449 0 0 0
6912 1 1 0 15.878245426933061 13.73074784142802 -1.5995503471607246 0 0 0
9781 1 2 0 17.4097348947769 13.612126529521992 -2.1582644293493276 0 0 0
9782 1 2 0 19.592187432295862 14.832497802470737 -1.9626545194165719 0 0 0
9626 1 2 0 23.5900729370797 14.614876907688023 -2.080667407234004 0 0 0
6915 1 1 0 28.65004086949794 14.63046128421256 -1.6470803636665 0 0 0
9783 1 2 0 30.22169913270611 14.398327564834188 -2.138245068415059 0 0 0
6914 1 1 0 31.80070988630691 14.40262441045646 -1.6265798047397622 0 0 0
9649 1 2 0 36.812801031337415 14.922470807483368 -2.008964776716472 0 0 0
9650 1 2 0 41.1675925915934 14.135550435143198 -2.1305517079895 0 0 0
6919 1 1 0 42.10755405667883 15.404850181777572 -1.6106476869872601 0 0 0
9791 1 2 0 43.6513203974058 15.721199544490894 -2.0991384188751083 0 0 0
9789 1 2 0 46.10704836355223 15.113566165628422 -2.1310082074828247 0 0 0
6918 1 1 0 46.91075745011227 13.780341908721468 -1.6326111486088437 0 0 0
9790 1 2 0 48.438220870743955 14.380436248893975 -2.1050521478021875 0 0 0
6925 1 1 0 49.87656423026279 15.13925543358337 -1.6124207906508667 0 0 0
9672 1 2 0 50.955011328777296 13.977691968761205 -2.0057680717011857 0 0 0
6854 1 1 0 56.922656260171834 14.16242161517165 -1.6021581411176082 0 0 0
9690 1 2 0 57.16562883036347 15.653447765861506 -2.153791357856624 0 0 0
9689 1 2 0 60.71013953746081 14.193137730020295 -2.1553747547045696 0 0 0
6930 1 1 0 61.76219625560704 15.297834536714644 -1.6253872491174242 0 0 0
9805 1 2 0 63.25260641388962 14.994743951041375 -2.177341877558966 0 0 0
6929 1 1 0 64.73075370472374 14.62129809399926 -1.6285405856605661 0 0 0
9806 1 2 0 65.73818795396919 15.806693376807157 -2.053220436877437 0 0 0
6874 1 1 0 70.34274348770748 13.915260249535859 -1.6229061565116176 0 0 0
9723 1 2 0 70.04898738089705 15.44833291616082 -2.1297793362420943 0 0 0
9722 1 2 0 74.19122248383651 14.381056789727584 -2.1720989494705427 0 0 0
6932 1 1 0 74.91544959042648 15.725414782941872 -1.6197558915158932 0 0 0
9808 1 2 0 76.46277576839319 15.668419026581589 -2.1108092971736157 0 0 0
9735 1 2 0 78.76311662506241 14.193234507370272 -2.17229438378897 0 0 0
6931 1 1 0 78.00977942148224 15.539976660725767 -1.6267008221330697 0 0 0
9746 1 2 0 84.2895615251324 15.622792351284374 -2.1010185224608615 0 0 0
6888 1 1 0 84.70729408180094 14.07855881615732 -1.6183781307051346 0 0 0
9745 1 2 0 86.2862121789476 13.660642204960931 -1.9233853115957802 0 0 0
9747 1 2 0 89.03685640091338 13.599591259940134 -2.074882027444313 0 0 0
6937 1 1 0 90.23269340068158 14.727731039921824 -1.6343208324628107 0 0 0
9816 1 2 0 91.83894153230183 14.544795985912573 -2.1250046530123474 0 0 0
6936 1 1 0 93.43999283399442 14.333986396870149 -1.6348507937374852 0 0 0
9817 1 2 0 94.69350199931415 15.360281802539456 -2.090892483122119 0 0 0
6583 1 1 0 100.01594465081652 13.90872786865425 -1.6370618371408678 0 0 0
9274 1 2 0 99.53459103222394 15.390170585560995 -2.1304925617863417 0 0 0
6579 1 1 0 7.917351872300093 16.04190341373391 -1.6239650113922077 0 0 0
9268 1 2 0 7.584383112249339 17.593908844901648 -2.1195830711587025 0 0 0
9365 1 2 0 13.747001417640071 17.27031625722538 -2.148160419313847 0 0 0
6954 1 1 0 19.8157072445898 16.396802096704253 -1.600873669800868 0 0 0
9845 1 2 0 18.554120628007198 17.30504593576413 -2.139785243837089 0 0 0
9843 1 2 0 21.374144320681665 16.41691991379066 -2.1323914055202584 0 0 0
6953 1 1 0 22.885968538544805 16.02074352008564 -1.6200412563212288 0 0 0
9844 1 2 0 23.87343849167629 17.219945697043002 -2.048357988995362 0 0 0
6955 1 1 0 27.56966632584748 17.689592414633598 -1.62655969522315 0 0 0
9785 1 2 0 27.998339317349632 16.124535618510684 -2.074457516038593 0 0 0
9784 1 2 0 32.308192346500974 15.908170825329638 -2.051305193060438 0 0 0
6917 1 1 0 33.28653350670656 17.15390382789051 -1.6371682189816326 0 0 0
9786 1 2 0 34.763006940273904 16.696486599874596 -2.1329244903729165 0 0 0
6916 1 1 0 36.27105082576211 16.405492468757465 -1.613572419505892 0 0 0
9787 1 2 0 37.19062395108328 17.629125788042064 -2.165396866632914 0 0 0
9792 1 2 0 41.504880509474354 16.855120614909904 -2.055556712356027 0 0 0
6920 1 1 0 45.12045758246932 16.307175107861315 -1.6392983302026085 0 0 0
9793 1 2 0 45.633878620957844 17.796238839971377 -2.141585458646066 0 0 0
9800 1 2 0 50.73426060571938 16.508737029408454 -2.10898070725923 0 0 0
6961 1 1 0 51.726815671018215 17.768072328419898 -1.6016760589131065 0 0 0
9855 1 2 0 53.26840386540925 18.160584946948536 -2.1145200250196745 0 0 0
9857 1 2 0 55.96666222598569 17.92343348220003 -2.1681104523638948 0 0 0
6962 1 1 0 57.29922009809313 17.176436938209655 -1.6407216152919404 0 0 0
9858 1 2 0 58.72005102183903 17.785326289935917 -2.118966765109287 0 0 0
6997 1 1 0 60.24649217933726 17.977043242867083 -1.6203260685073884 0 0 0
9807 1 2 0 61.217707540787636 16.75629328124936 -2.0382263448541096 0 0 0
6967 1 1 0 66.42039845797059 17.206365404593218 -1.6223568574147913 0 0 0
9863 1 2 0 67.94618404073373 17.110169011285485 -2.1578929880831317 0 0 0
6966 1 1 0 69.4661223042947 16.89939623762356 -1.6278573384472332 0 0 0
9810 1 2 0 74.0918241856988 17.07612320510949 -2.0110691973235952 0 0 0
9809 1 2 0 78.70323455376064 16.940713988331378 -2.053741139268683 0 0 0
6933 1 1 0 84.14640211753292 17.208185332025515 -1.6063472461601214 0 0 0
9811 1 2 0 82.97839554769533 18.259678075767074 -2.135026184454245 0 0 0
9812 1 2 0 85.53433103187248 17.98138245624836 -1.9840523535530223 0 0 0
6974 1 1 0 89.58121187340471 17.872769702166906 -1.6224333243136055 0 0 0
9818 1 2 0 89.81967142460357 16.287611380616525 -2.0449509268553583 0 0 0
6947 1 1 0 95.78718114776485 16.553195782474496 -1.6362537605647032 0 0 0
9834 1 2 0 95.14732063225969 17.965366208819127 -2.1492687985548535 0 0 0
6584 1 1 0 99.01922693214952 16.863207249234904 -1.6355809804024177 0 0 0
9276 1 2 0 97.40020915252448 16.734560237806175 -2.059068708247299 0 0 0
9272 1 2 0 100.12291174939335 18.047671298547417 -2.1248497484816333 0 0 0
6617 1 1 0 7.029810804178123 19.07575766856676 -1.6162526647369366 0 0 0
9326 1 2 0 8.087907032393765 20.220526883672463 -2.127079461002554 0 0 0
9363 1 2 0 13.336599492310022 19.904535868325787 -2.158373710729272 0 0 0
6643 1 1 0 14.329865744266302 18.698067160161486 -1.649108486958483 0 0 0
9367 1 2 0 15.897377255977336 18.591285071218635 -2.131308220753301 0 0 0
6982 1 1 0 17.443443266155693 18.4010274482649 -1.6060928847431615 0 0 0
9887 1 2 0 18.094380120726303 19.823337730520443 -2.0110428636320195 0 0 0
9937 1 2 0 20.603254031755913 20.523522986177205 -2.016118047479211 0 0 0
6956 1 1 0 24.55778802471512 18.624905051583273 -1.6161010998470633 0 0 0
9848 1 2 0 23.439241582454727 19.73254618458321 -2.1470108069930873 0 0 0
9846 1 2 0 26.107920015060525 18.31514168154004 -2.1250083723482605 0 0 0
9847 1 2 0 28.658823196348052 18.863828676652222 -2.0318034543532835 0 0 0
6987 1 1 0 29.39184599476858 20.277333358380208 -1.6124006103940736 0 0 0
9891 1 2 0 30.95592697592319 20.32117208211969 -2.0699531749002587 0 0 0
9788 1 2 0 32.97217597955083 18.691683469943214 -2.119191140048354 0 0 0
6986 1 1 0 32.5195796513824 20.196115441414072 -1.6308344199994897 0 0 0
9850 1 2 0 37.72079808288472 20.348565201172594 -2.1558382546468646 0 0 0
6957 1 1 0 38.12003058610506 18.857540106539773 -1.6546112622537303 0 0 0
9849 1 2 0 39.62407818930347 18.601104985276578 -2.1765214233488694 0 0 0
6958 1 1 0 41.12082124744174 18.37195839177306 -1.6193905249817964 0 0 0
9851 1 2 0 42.046571587370806 19.61222065584382 -2.1249000096246147 0 0 0
9897 1 2 0 44.571321922004394 20.15326961333045 -2.100017804462972 0 0 0
6990 1 1 0 45.89114516156626 19.34390881678251 -1.62255142385811 0 0 0
9898 1 2 0 47.014359009648494 20.43185536321144 -2.1420109438846504 0 0 0
9856 1 2 0 50.965287358128045 19.18146301400015 -1.9212406024672994 0 0 0
6963 1 1 0 54.71838642017514 18.82520560490689 -1.6514761894528536 0 0 0
9859 1 2 0 55.35131647362846 20.272580922369702 -2.1567027589650225 0 0 0
9908 1 2 0 60.96774625357057 19.31156374626188 -2.1637360117961384 0 0 0
7000 1 1 0 61.93741839098709 20.47701956410515 -1.6110862582025705 0 0 0
9910 1 2 0 63.454089542736824 20.23006447776832 -2.141951042462266 0 0 0
6999 1 1 0 64.9735154522133 19.915547310768293 -1.6511661300725156 0 0 0
9865 1 2 0 65.59304486052613 18.499539131388225 -2.161330734415569 0 0 0
9864 1 2 0 70.1962766334069 18.290448070548013 -2.070932016911194 0 0 0
6971 1 1 0 70.93169357226103 19.68677741839098 -1.6320348411351593 0 0 0
9869 1 2 0 72.44011634001944 19.31709030898445 -2.1469900214973614 0 0 0
6970 1 1 0 73.82500916640454 18.63484050711944 -1.620988941809024 0 0 0
9870 1 2 0 75.08904110810326 19.49595439486444 -2.141388060224992 0 0 0
7006 1 1 0 76.40590431569022 20.2885594014025 -1.6457825235434813 0 0 0
9814 1 2 0 77.74086498199532 19.490032151382835 -2.1277960534202007 0 0 0
6934 1 1 0 78.92461458146515 18.48982175557565 -1.6258823173468162 0 0 0
9813 1 2 0 80.38865380636149 18.91521380187229 -2.1774608620781706 0 0 0
6935 1 1 0 81.85745762301565 19.369856217799825 -1.6469727034419395 0 0 0
6975 1 1 0 86.68942864854091 19.066236241233188 -1.6086653588429116 0 0 0
9877 1 2 0 86.36014559972708 20.586977238924018 -2.143268839761922 0 0 0
9875 1 2 0 88.11462461086738 18.428938895804567 -2.095442790762906 0 0 0
9876 1 2 0 90.6324529049662 19.0322834836218 -2.157292418836706 0 0 0
7010 1 1 0 91.6634543547207 20.206931902653455 -1.6276134211067372 0 0 0
9925 1 2 0 93.14531667104184 19.71407894708951 -2.0715095177298646 0 0 0
7009 1 1 0 94.67588923959703 19.43027093284876 -1.6301496538432088 0 0 0
9926 1 2 0 95.6547787703555 20.616085843532947 -2.163916136024353 0 0 0
6582 1 1 0 101.23433292675347 19.22161153801511 -1.6206452406694831 0 0 0
9273 1 2 0 100.59595565091828 20.654680151483603 -2.084799106463509 0 0 0
9362 1 2 0 8.63163428332713 22.828446395957844 -2.018032623444581 0 0 0
6640 1 1 0 9.175587376094809 21.335261667788366 -1.6227744637394492 0 0 0
9361 1 2 0 10.710384638071295 21.03217315109921 -2.142073498365158 0 0 0
6641 1 1 0 12.277554485622574 21.056450034668934 -1.640300894920888 0 0 0
9364 1 2 0 12.905048490964786 22.49835320409217 -2.077244087851612 0 0 0
9939 1 2 0 18.25068729475866 22.344127170208544 -2.13524114705682 0 0 0
7018 1 1 0 19.092842578817102 21.02449189886055 -1.604921338681003 0 0 0
7017 1 1 0 22.193036473122298 20.689623253342695 -1.6291801891940438 0 0 0
9938 1 2 0 22.25087403694866 22.224518926178884 -2.1698903246746597 0 0 0
9893 1 2 0 28.78572675901043 21.703279415046367 -2.1627874935595224 0 0 0
9892 1 2 0 33.41101278864641 21.486046881253483 -2.1596481345706433 0 0 0
6989 1 1 0 34.451822852768345 22.65084016337102 -1.621378862291772 0 0 0
9894 1 2 0 35.97066321362906 22.23488533047551 -2.0419844682728003 0 0 0
6988 1 1 0 37.49405107019781 21.866605479880988 -1.6133327777751616 0 0 0
9895 1 2 0 38.59360859327189 22.963955931986344 -2.1300798677945774 0 0 0
6991 1 1 0 43.13613508943831 20.715092828528558 -1.6312052001039719 0 0 0
9899 1 2 0 42.97813755023291 22.254112840118566 -2.1245711031751657 0 0 0
6993 1 1 0 47.933840501637654 21.69873797782087 -1.63131255858524 0 0 0
9900 1 2 0 49.442608526363735 21.371473035881234 -2.1493949100712495 0 0 0
6992 1 1 0 50.86043812132259 20.778486588006796 -1.6155726368194872 0 0 0
9901 1 2 0 52.0959976518344 21.711698940179897 -2.1358093779535654 0 0 0
7034 1 1 0 53.11835469355955 22.852636891397527 -1.580763750019301 0 0 0
9961 1 2 0 54.68535935059493 22.5964122558902 -1.8647442040943134 0 0 0
7033 1 1 0 55.987994954480726 21.683730485410354 -1.5747953332942446 0 0 0
9962 1 2 0 57.23025957419184 22.667486012146124 -2.035054650319654 0 0 0
9912 1 2 0 61.22479612241318 21.88133627955869 -1.974341723571324 0 0 0
7036 1 1 0 66.45134274761298 22.595222870750476 -1.6227688135529224 0 0 0
9911 1 2 0 65.89003621840338 21.16045422577924 -2.13899405804835 0 0 0
9964 1 2 0 68.01686643673168 22.725732587817834 -2.081379293495158 0 0 0
7035 1 1 0 69.58432263253749 22.51809603803486 -1.6311958782056488 0 0 0
9871 1 2 0 70.26788111136925 21.1047439016733 -2.1627798638451554 0 0 0
9921 1 2 0 76.2890240629169 21.826361229865682 -2.163792153201978 0 0 0
9815 1 2 0 81.91666119526987 20.95064606474472 -2.102150536527358 0 0 0
7044 1 1 0 81.57671342314627 22.48235803025542 -1.6192637468135012 0 0 0
7043 1 1 0 86.2412488030293 22.127111999760764 -1.5930374640880458 0 0 0
9978 1 2 0 87.57713756958655 22.979115871989805 -1.9142232797626746 0 0 0
9927 1 2 0 91.51351124770262 21.766859828020372 -2.137393742321736 0 0 0
7014 1 1 0 96.6309529763436 21.788995714145774 -1.6082630471384483 0 0 0
9333 1 2 0 98.18861811634677 21.48404645942514 -1.8984930198800531 0 0 0
6621 1 1 0 99.71613185518287 21.918887416820006 -1.5879233529776855 0 0 0
6664 1 1 0 7.844547368275412 24.21102757868792 -1.6107348597387912 0 0 0
9399 1 2 0 8.838855287796466 25.437844079433617 -2.128493504511672 0 0 0
6687 1 1 0 13.98186773956728 23.629011287155237 -1.612137026748304 0 0 0
9435 1 2 0 15.476901790283378 23.103008538060543 -1.9970684508665897 0 0 0
9434 1 2 0 13.694672312051 25.17970724018374 -2.059539035207249 0 0 0
7055 1 1 0 17.0454961248506 23.33638574069721 -1.6122643208676917 0 0 0
9995 1 2 0 17.128626620358784 24.90508275692316 -2.023128607689363 0 0 0
7024 1 1 0 22.547736664264075 23.726377082252437 -1.63683347427212 0 0 0
9949 1 2 0 21.625068919877382 24.970911504390358 -2.162461325430764 0 0 0
9948 1 2 0 24.105275259383614 23.773333702193973 -2.0811995714483813 0 0 0
7026 1 1 0 25.541182515302587 24.349367094436182 -1.6224630307494083 0 0 0
9950 1 2 0 26.905083553910348 23.654958321941407 -2.1679212406510073 0 0 0
7025 1 1 0 28.389539601061628 23.20757283959366 -1.6519596363946296 0 0 0
9951 1 2 0 29.390991333735865 24.449860023826222 -2.031369862987535 0 0 0
9896 1 2 0 34.42326589162404 24.24070740690095 -2.0622608049075852 0 0 0
7029 1 1 0 39.617469078420825 24.138582305883226 -1.6285440538358567 0 0 0
9954 1 2 0 41.13929745874134 24.023503619663906 -2.177578302030216 0 0 0
7028 1 1 0 42.65281192232695 23.77377909933833 -1.6428355774704948 0 0 0
9955 1 2 0 43.718723895276455 24.893956377950524 -2.163241966445906 0 0 0
9902 1 2 0 47.48486941345714 23.236206541245018 -1.9994608685877606 0 0 0
7066 1 1 0 47.61147724270914 24.833975251300014 -1.6205581081711122 0 0 0
9963 1 2 0 53.00810914407776 24.383994032214748 -2.0887834516138897 0 0 0
10021 1 2 0 57.21034408170453 25.411280948135236 -2.1216369632309333 0 0 0
7072 1 1 0 58.026366546301475 24.05913216992181 -1.6383052241943155 0 0 0
10019 1 2 0 59.60008927080167 23.97750155201596 -2.123121951363448 0 0 0
7071 1 1 0 61.071268227033016 23.453912607009663 -1.6117804065162753 0 0 0
10020 1 2 0 62.49765029424264 24.03915259129779 -2.1683802776214947 0 0 0
7077 1 1 0 63.969974590055216 24.524122411846086 -1.6327070191895268 0 0 0
9966 1 2 0 65.33937668263562 23.72137787424584 -2.0658948626554814 0 0 0
9965 1 2 0 70.29095920202282 23.951746608208794 -2.015694406597817 0 0 0
7037 1 1 0 76.48709031583964 23.32750909806517 -1.5848808726184267 0 0 0
9967 1 2 0 75.68700053514297 24.655767889774072 -2.0379833472897326 0 0 0
9968 1 2 0 77.9990803401742 23.75550989134979 -1.9553528722520075 0 0 0
7083 1 1 0 79.33661113753806 24.589081697825815 -1.5881987216816085 0 0 0
9980 1 2 0 80.40278682270277 23.490273254933122 -2.169580595790266 0 0 0
9979 1 2 0 82.72582650118738 23.50914476563143 -2.118655737406632 0 0 0
7045 1 1 0 84.04523591660869 24.29727781211794 -1.6361789287302893 0 0 0
9977 1 2 0 85.152756866126 23.211538573499165 -2.1358107420895083 0 0 0
7048 1 1 0 88.43679919186484 24.31260158720304 -1.595619763243034 0 0 0
9983 1 2 0 89.88408712985459 23.866043030047003 -2.1380482847442015 0 0 0
7047 1 1 0 91.32019104869663 23.320354939088908 -1.6375204198210882 0 0 0
9984 1 2 0 92.17714035818673 24.616403463127135 -2.1699211900115474 0 0 0
7085 1 1 0 95.95591094914786 24.753334383282123 -1.604454067813136 0 0 0
9933 1 2 0 96.3315132128079 23.281328172767324 -2.171702432182859 0 0 0
10038 1 2 0 94.46297959929886 25.118914599553843 -2.046920155784151 0 0 0
9332 1 2 0 100.09622748924747 23.398868627152872 -2.1586109545206758 0 0 0
6622 1 1 0 100.45329196333964 24.90935688917084 -1.6603063612573794 0 0 0
6683 1 1 0 9.886643668720952 26.629671471832445 -1.6511349798287753 0 0 0
6688 1 1 0 13.04238785599658 26.623011840554735 -1.617825036529557 0 0 0
9428 1 2 0 11.46774589158848 26.58225054683375 -2.135265674555389 0 0 0
7058 1 1 0 17.62159584829246 26.392363782838256 -1.6112083595198552 0 0 0