LAMMPS data file via write_data, version 2 Aug 2023, timestep = 328, units = metal

15432 atoms
2 atom types

7.391213838996361 195.71410370801289 xlo xhi
6.4524157498000445 170.39512512109437 ylo yhi
-100 100 zlo zhi

Masses

1 28.085
2 15.999

Atoms # full

9265 1 2 0 8.653499435522559 7.227954225343401 -2.243539780584789 0 0 0
6577 1 1 0 7.896750139025074 11.160679992128085 -1.647542927936598 0 0 0
9262 1 2 0 7.626447085861105 9.653715006077167 -2.2442025187888204 0 0 0
9270 1 2 0 11.98851859186094 10.298470348603265 -2.2172070206881265 0 0 0
9263 1 2 0 9.425257261749172 11.541993383595186 -2.205433517132236 0 0 0
6582 1 1 0 10.997659799100806 11.513728487064984 -1.644946656528847 0 0 0
13007 1 2 0 7.896099967093153 11.227546256799368 -3.3804726613519406e-08 0 0 0
6579 1 1 0 7.414639466215423 8.141846072982915 -1.6474300423509551 1 0 0
9276 1 2 0 13.039693469881767 7.855978709507459 -2.22765185615269 0 0 0
6586 1 1 0 13.260802707125256 9.383320440416067 -1.648252576400977 0 0 0
13016 1 2 0 13.251253676494931 9.426793799415389 -3.3410008679422616e-07 0 0 0
9631 1 2 0 17.295345693049015 8.640924894547684 -2.2169427157822224 0 0 0
6822 1 1 0 16.325814335447127 9.864187753804734 -1.6461332096201349 0 0 0
9277 1 2 0 14.76289235250274 9.828472622322295 -2.215940810450931 0 0 0
9630 1 2 0 17.051705730119018 11.232791771104877 -2.2079777190690937 0 0 0
6824 1 1 0 18.60568526949703 7.791786854422868 -1.6481213781208897 0 0 0
9634 1 2 0 20.0551760019113 8.393423075084934 -2.2077228953126427 0 0 0
6829 1 1 0 21.62112593094786 8.525732597946165 -1.6485847395634943 0 0 0
9642 1 2 0 22.506818165485985 7.239363440441596 -2.2165659939129774 0 0 0
9639 1 2 0 22.341439824933968 9.919620303478185 -2.2065559070534744 0 0 0
6828 1 1 0 22.527615356071074 11.47739184711465 -1.6468196020326766 0 0 0
13259 1 2 0 21.610942532729045 8.530288055975133 -1.1609796738754396e-07 0 0 0
9640 1 2 0 21.191443070595685 12.28585980925073 -2.2053135328155977 0 0 0
9641 1 2 0 23.922357544392717 12.208208165568143 -2.2000504912749794 0 0 0
9658 1 2 0 25.13539958812815 6.531091689544988 -2.244625167966511 0 0 0
6838 1 1 0 26.52881920969026 7.170144302099893 -1.6459543548619957 0 0 0
9646 1 2 0 26.43014081055407 8.752831795475965 -2.1553462031779707 0 0 0
6831 1 1 0 27.210178614520768 10.129541892970867 -1.643436511866437 0 0 0
9644 1 2 0 28.731438459146645 9.861418705757531 -2.2317825861592246 0 0 0
9645 1 2 0 26.513201264760866 11.543847581762039 -2.2078493135350286 0 0 0
6832 1 1 0 30.276446113376945 9.770124831215337 -1.6466825501312814 0 0 0
9647 1 2 0 30.858410278996637 11.211190193355158 -2.213510152879741 0 0 0
13262 1 2 0 30.297657114977557 9.714348032927555 -8.721579820914425e-07 0 0 0
6839 1 1 0 31.554304277411163 6.882833366409298 -1.6492818690212618 0 0 0
9648 1 2 0 31.07924336247213 8.403716475135857 -2.1942451133052274 0 0 0
9660 1 2 0 33.10622242457383 6.510903442250546 -2.2025378833874805 0 0 0
9651 1 2 0 33.24748561505025 12.003663258584567 -2.289305196940476 0 0 0
9666 1 2 0 35.97734747786663 6.746080419082643 -2.2165749582929086 0 0 0
9667 1 2 0 36.792898233247094 9.140081408243693 -2.2051619502008846 0 0 0
9670 1 2 0 35.97921275290032 11.725275288454768 -2.267261736249597 0 0 0
6844 1 1 0 37.25885841175812 7.6540479929222665 -1.6471178519521439 0 0 0
9668 1 2 0 38.83924295779069 7.359951925735893 -2.1632406133371163 0 0 0
6846 1 1 0 37.09811299071885 10.653397983008407 -1.6477032067602635 0 0 0
9671 1 2 0 38.61375372385235 10.95516926676253 -2.251281152163787 0 0 0
13280 1 2 0 39.832419409073445 11.822918234992098 -6.331948487773244e-07 0 0 0
13274 1 2 0 37.28238572728101 7.55132160599467 -4.2660194942548344e-07 0 0 0
6850 1 1 0 39.77201585010755 11.943232387173184 -1.6400257806905798 0 0 0
9674 1 2 0 41.27208080345539 11.555015639074526 -2.2103942648209545 0 0 0
9683 1 2 0 41.66643669806441 6.5720488888281485 -2.1810079683312664 0 1 0
9694 1 2 0 44.45049725961352 7.414295801017538 -2.176577644970384 0 0 0
6860 1 1 0 45.85184676806665 8.190618696341435 -1.6478480880458353 0 0 0
9688 1 2 0 45.80008769418106 9.75862165823248 -2.2068290520890423 0 0 0
9675 1 2 0 43.93781610706468 11.641574133189192 -2.2535716506440524 0 0 0
6856 1 1 0 45.43682615021005 11.274655599841715 -1.6483045850928906 0 0 0
13286 1 2 0 45.44700065876361 11.274618604278029 -3.4711678689889147e-07 0 0 0
13290 1 2 0 45.847069827401604 8.138043178340418 -1.3753886242378247e-07 0 0 0
9695 1 2 0 47.33377733921074 7.590177435517224 -2.1817997575701553 0 0 0
6866 1 1 0 48.91508776819075 7.372503090316476 -1.648153860200814 0 0 0
9701 1 2 0 49.994746518985394 8.53071378363998 -2.19822784112391 0 0 0
6864 1 1 0 51.17739938085868 9.574724845219436 -1.647631982256702 0 0 0
9700 1 2 0 50.81352464711078 11.091130762466676 -2.217872056696801 0 0 0
13294 1 2 0 51.18613800040356 9.5461448767565 -5.87413826196465e-09 0 0 0
9702 1 2 0 52.71132741636118 9.212093089522163 -2.2019040444554774 0 0 0
6867 1 1 0 54.26192838219145 8.945286120484008 -1.6472239915081195 0 0 0
13297 1 2 0 54.26127006347003 8.976365054059809 -4.122868640092291e-08 0 0 0
9706 1 2 0 54.744339861674156 7.467416153780224 -2.214776693998297 0 0 0
9705 1 2 0 55.37051011718739 10.056653452095556 -2.212231760195822 0 0 0
6868 1 1 0 56.506719355343996 11.136281416904016 -1.6480342886405739 0 0 0
13298 1 2 0 56.51840622391045 11.103879782145354 -1.8617459475180164e-07 0 0 0
9719 1 2 0 59.24791420342829 7.094162054890493 -2.1849495935809076 0 0 0
9708 1 2 0 58.03966030553511 10.80334898336341 -2.219357048384107 0 0 0
6874 1 1 0 59.603933041153475 10.739282371797472 -1.647802956270932 0 0 0
6875 1 1 0 60.624390427799504 7.857086854899704 -1.6453998200578321 0 0 0
9720 1 2 0 62.08281498826189 7.264684920707676 -2.2152739266983787 0 0 0
9717 1 2 0 60.413119727956435 9.402371900304182 -2.1956706732625557 0 0 0
9718 1 2 0 60.51777833146579 12.001379246390139 -2.230242837200819 0 0 0
6882 1 1 0 63.653910122481484 7.140068126165752 -1.6493006512265842 0 0 0
9728 1 2 0 64.51144277419343 8.454466704466485 -2.2053278195352046 0 0 0
6880 1 1 0 65.73648998650201 9.425201284264038 -1.6475692818756844 0 0 0
9727 1 2 0 65.60089843695953 10.979977948750083 -2.210583149538624 0 0 0
13312 1 2 0 63.64095343429333 7.115525307137249 -4.193104132445865e-07 0 0 0
9723 1 2 0 63.27772627941819 12.169657019012366 -2.203522132194799 0 0 0
9729 1 2 0 67.17331664677162 8.84683645626954 -2.2305021701500922 0 0 0
6883 1 1 0 68.71463666450398 8.761014443112257 -1.6489225136159424 0 0 0
9733 1 2 0 69.40177802754219 7.3833578457662 -2.2385958467582725 0 0 0
9732 1 2 0 69.55562326099802 10.060598383439256 -2.242149516855698 0 0 0
6884 1 1 0 70.83190885009778 10.912261868706228 -1.6455398283529312 0 0 0
13313 1 2 0 68.7271291773158 8.754166585934875 -3.727759459077668e-07 0 0 0
13314 1 2 0 70.80001606054516 10.901456043431578 -3.0906788441975554e-07 0 0 0
9735 1 2 0 72.22855105140337 10.246112117924705 -2.219286853444968 0 0 0
6894 1 1 0 73.76862052773762 10.325659038957708 -1.645848784668481 0 0 0
6893 1 1 0 75.10883328818565 7.615846315888799 -1.647205097365622 0 0 0
9751 1 2 0 76.64392223659753 7.504783122235374 -2.2325917702628293 0 0 0
9749 1 2 0 74.526694220338 9.01887885166337 -2.2639565981433867 0 0 0
9752 1 2 0 74.5671521525091 11.645747564951382 -2.229766663492302 0 0 0
13326 1 2 0 77.9718420417347 8.2706179734841 -5.9088714341302425e-08 0 0 0
9756 1 2 0 77.2786067238019 12.109135755707875 -2.269696711053597 0 0 0
6896 1 1 0 78.03174032769039 8.176249147200677 -1.6429190507270806 0 0 0
9755 1 2 0 79.16229923344744 7.1055011069468605 -2.170019609044193 0 0 0
9754 1 2 0 78.37437883571967 9.686549285789788 -2.2350881900174007 0 0 0
6897 1 1 0 78.52983523139807 11.228183121442648 -1.6494606561888854 0 0 0
6899 1 1 0 80.71676214502865 6.941429802622707 -1.641525322754685 0 0 0
9760 1 2 0 81.546945293388 8.230064307027048 -2.2569587861363605 0 0 0
6905 1 1 0 82.60072859720093 9.35493859755532 -1.648916936433924 0 0 0
9769 1 2 0 82.30992985732348 10.893905238794913 -2.2002065878909365 0 0 0
13335 1 2 0 82.57121197902565 9.362933399166264 -4.172982079058254e-07 0 0 0
9757 1 2 0 79.88660836223912 11.978170033981176 -2.2148177715829345 0 0 0
6906 1 1 0 81.42823108466465 12.190922964317403 -1.6465066381514157 0 0 0
9770 1 2 0 84.04990408576516 8.879415031548131 -2.2501627285450647 0 0 0
6909 1 1 0 85.50317711406852 8.409782650529314 -1.6474944212093994 0 0 0
9775 1 2 0 85.74385278819896 6.850831717024394 -2.203914243481858 0 0 0
9776 1 2 0 86.49106653452239 9.627645141438151 -2.204485149039553 0 0 0
6912 1 1 0 87.66443642473186 10.662328319754991 -1.6440234032521461 0 0 0
9779 1 2 0 89.04770952028188 9.95262035288754 -2.2046093086021816 0 0 0
13342 1 2 0 87.60545458252321 10.743773044830812 -7.183122759729057e-07 0 0 0
9782 1 2 0 87.60852004010626 12.233021580627318 -2.2209591681384295 0 0 0
9780 1 2 0 89.89777237879915 7.254508225730625 -2.2465573943275623 0 0 0
6911 1 1 0 90.07725989193362 8.786293756504966 -1.6452291311284553 0 0 0
9794 1 2 0 94.29117348251941 7.006862860880883 -2.2582375118054467 0 0 0
6920 1 1 0 94.84035185383469 8.440329390221768 -1.6449986601014461 0 0 0
9781 1 2 0 91.53086727650063 9.28475763746213 -2.2231765532126793 0 0 0
6916 1 1 0 92.6073503961175 10.382474391254364 -1.6443378482272346 0 0 0
9788 1 2 0 94.04914721323014 9.786983315171224 -2.187024700503035 0 0 0
13346 1 2 0 92.55512144253366 10.452344309623516 -2.7149782000800583e-07 0 0 0
9787 1 2 0 92.31594353651 11.891429492989687 -2.2462981574872516 0 0 0
13350 1 2 0 94.77996097021457 8.384186282964679 1.0557666680990961e-07 0 0 0
9800 1 2 0 98.9288762274104 8.7423105565886 -2.2439231965318784 0 0 0
6926 1 1 0 99.9070366592147 7.5618090415871775 -1.6474666912120486 0 0 0
9121 1 2 0 101.36410525578086 8.015352088262807 -2.2439636843031274 0 0 0
9795 1 2 0 96.36673977006167 8.613200510762248 -2.216701502136109 0 0 0
6923 1 1 0 97.61262055191284 9.517948547668732 -1.6458116505851421 0 0 0
9799 1 2 0 97.51239044805486 11.05156451576178 -2.240572224063969 0 0 0
13353 1 2 0 97.63804841935026 9.566303268210701 -3.084500119261336e-07 0 0 0
9269 1 2 0 11.724912973033659 12.886973771931375 -2.1922633808811764 0 0 0
6585 1 1 0 11.93151976134564 14.42695683176086 -1.6454524456195214 0 0 0
9273 1 2 0 10.629801551122588 15.287670716252483 -2.220874720688355 0 0 0
6584 1 1 0 9.461356651020987 16.325872444759217 -1.648895332693655 0 0 0
9271 1 2 0 7.9238444945697495 16.10022123241171 -2.2308110533051932 0 0 0
13014 1 2 0 9.436302568388527 16.257678129887733 -1.0244920642304074e-07 0 0 0
9274 1 2 0 9.882035401474521 17.7906077473355 -2.26919170131209 0 0 0
6823 1 1 0 17.214059605140058 12.772796111582348 -1.6465854139849165 0 0 0
9275 1 2 0 13.426060212119037 14.89880055852692 -2.2246397153554076 0 0 0
6649 1 1 0 14.991720999500282 14.85053059519848 -1.6466517475361842 0 0 0
9375 1 2 0 15.87134329491587 13.565484320740994 -2.2143708478042816 0 0 0
9374 1 2 0 15.89254164532208 16.126666839604674 -2.1932811969971313 0 0 0
13253 1 2 0 17.236821406930414 12.83483666255178 -1.5720520118242652e-07 0 0 0
13079 1 2 0 14.910127152335368 14.831200321851192 -1.3997436131796732e-07 0 0 0
6650 1 1 0 16.01960294360677 17.67511443919478 -1.6469349064836907 0 0 0
9632 1 2 0 18.66743314467801 13.336530134296332 -2.2279781946984203 0 0 0
6830 1 1 0 20.217460184486338 13.501583856441052 -1.6495100678800592 0 0 0
9643 1 2 0 20.909855981680614 14.886203565430835 -2.2445635499884116 0 0 0
6931 1 1 0 20.968602833704054 16.418473818419475 -1.6376876213922842 0 0 0
9810 1 2 0 19.549335315856 17.107751144351898 -2.112167126558079 0 0 0
9811 1 2 0 22.20537484247462 17.322429054006744 -2.2515925231143474 0 0 0
13260 1 2 0 20.186493268139348 13.508964133199358 -1.716065710146408e-07 0 0 0
13361 1 2 0 21.11878504003475 16.365602242113066 -4.5516288698735777e-07 0 0 0
6935 1 1 0 23.63371426821792 17.91410813015142 -1.6483137339120724 0 0 0
9653 1 2 0 24.7564151693528 16.831837082200753 -2.2081877166416306 0 0 0
6833 1 1 0 25.42630654549557 12.701670393690657 -1.6506695107528828 0 0 0
9649 1 2 0 25.79766254818497 14.260592419714346 -2.188867699538958 0 0 0
6835 1 1 0 25.978130017808834 15.853836261041884 -1.6467162085887859 0 0 0
9652 1 2 0 27.321096273311635 16.673669090936095 -2.1949127049431163 0 0 0
13263 1 2 0 25.441683824518197 12.731537297142804 -2.2991377771901868e-07 0 0 0
6837 1 1 0 28.71043033553059 17.41631643017468 -1.6478000886126136 0 0 0
9654 1 2 0 29.85924012420671 16.353724508250387 -2.20722990072268 0 0 0
6834 1 1 0 31.775216431278444 12.463790122528135 -1.6567877234562711 0 0 0
6847 1 1 0 34.65845189928735 12.46296545090132 -1.5724553067188347 0 0 0
6836 1 1 0 31.182657547352104 15.527705259556972 -1.645289870621361 0 0 0
9650 1 2 0 31.23876439029403 13.952394257062197 -2.2074398641264508 0 0 0
9672 1 2 0 34.49364286689376 14.115957310418214 -1.6738045318823098 0 0 0
9655 1 2 0 32.44886746176971 16.419536823743286 -2.2244752175512854 0 0 0
9817 1 2 0 35.03430521405097 16.74740893396108 -2.2404982672726654 0 0 0
6937 1 1 0 33.62779130525203 17.426717282199604 -1.6528312664117946 0 0 0
6936 1 1 0 35.59825272330444 15.342722022342063 -1.5810003952638236 0 0 0
13366 1 2 0 35.97106768787531 15.693327342875774 -7.086085493600032e-07 0 0 0
9678 1 2 0 39.38586784374247 13.472684690984451 -2.181479448030181 0 0 0
9680 1 2 0 36.88013055694552 14.675374213940891 -2.4070611122556045 0 0 0
6851 1 1 0 38.2254026363773 14.408054229768874 -1.4838798967145712 0 0 0
9679 1 2 0 38.78561473868801 15.911059898907192 -1.275357306427195 0 0 0
6852 1 1 0 39.92569502804834 17.035479067112057 -1.485837263772595 0 0 0
13282 1 2 0 40.50494901527468 17.5540549270224 -4.4183009486171934e-07 0 0 0
6848 1 1 0 42.6022972504796 12.385436625475046 -1.652858560182413 0 0 0
6849 1 1 0 42.33540847015232 15.413149652655841 -1.6145716742357274 0 0 0
9673 1 2 0 42.46613778208011 13.915895406093414 -2.279190821711982 0 0 0
9676 1 2 0 41.190353435366454 16.38747881533144 -2.339230902563971 0 0 0
13278 1 2 0 42.67723236431026 12.410308922960033 -2.7340268636122107e-07 0 0 0
9677 1 2 0 43.77801210143114 16.140586033134948 -1.8980468921214386 0 0 0
9691 1 2 0 45.88498483506839 17.549883946505897 -2.2526593043032754 0 0 0
6859 1 1 0 44.36314831788837 17.655421892718 -1.6090034138227387 0 0 0
13289 1 2 0 44.47244023930313 17.9882218251074 -3.4181980514947803e-07 0 0 0
9687 1 2 0 46.48051465291866 12.432489409580537 -2.217236837192187 0 0 0
6857 1 1 0 47.55636643429648 13.56226007691456 -1.6477653784237063 0 0 0
9689 1 2 0 47.1903415935288 15.08267559843362 -2.2260536385639846 0 0 0
6858 1 1 0 47.149622397076115 16.6443236727576 -1.6498967852483484 0 0 0
9692 1 2 0 48.488612003313484 17.471859287206392 -2.1620455771072153 0 0 0
9690 1 2 0 49.04567323374974 13.124431384981419 -2.2195888621084894 0 0 0
6865 1 1 0 50.51091869534189 12.615918297391804 -1.6470056606639647 0 0 0
9703 1 2 0 51.65385165555303 13.663532885220661 -2.229977042125335 0 0 0
13295 1 2 0 50.51901965998682 12.610642653798124 -2.734178369163258e-07 0 0 0
6870 1 1 0 52.64964102150776 14.849584501860797 -1.6473078042690068 0 0 0
9709 1 2 0 54.17262075512101 14.551530110997206 -2.2286143283530513 0 0 0
9711 1 2 0 52.10825553350479 16.318549315624725 -2.2013171269418716 0 0 0
13300 1 2 0 52.66100273330511 14.835298350882525 1.1618994653012066e-07 0 0 0
6940 1 1 0 52.11663500455874 17.887094208443227 -1.649358731791154 0 0 0
13370 1 2 0 52.12651325161521 17.896531503988673 -1.3356631216413615e-07 0 0 0
9707 1 2 0 56.07778128752701 12.63475332703814 -2.2129965177089583 0 0 0
6869 1 1 0 55.66457333915364 14.135222152748806 -1.6498822093327736 0 0 0
9710 1 2 0 56.73173181928562 15.256430991131149 -2.258782151798098 0 0 0
13299 1 2 0 55.668965762086216 14.131574780444897 -1.6149687050768226e-07 0 0 0
9724 1 2 0 59.410659380869845 15.228107817260868 -2.1292263071660145 0 0 0
6879 1 1 0 58.052866076861235 16.033343123033553 -1.63855947921065 0 0 0
13309 1 2 0 57.89476905758523 16.071761082229028 -4.0652086414504277e-07 0 0 0
9726 1 2 0 58.302475372946915 17.57373058005455 -2.1966995460771814 0 0 0
6877 1 1 0 61.851527918797174 12.793857781479995 -1.646776052677504 0 0 0
6878 1 1 0 60.95245420195238 15.597766995803601 -1.6415897646896531 0 0 0
9722 1 2 0 61.87334264670485 14.352968360622265 -2.202477338785851 0 0 0
9725 1 2 0 61.52636615943742 17.008524467583843 -2.273906267511677 0 0 0
13307 1 2 0 61.821462190124905 12.738414669272798 -3.1184580697711525e-07 0 0 0
13308 1 2 0 61.021719460086906 15.694924293534097 -1.2408796417066115e-07 0 0 0
6881 1 1 0 64.8323110268084 12.335854356252776 -1.647633072873967 0 0 0
9730 1 2 0 65.56980018225548 13.70752988122298 -2.2430643554291883 0 0 0
6885 1 1 0 66.2222038534491 15.113840499072042 -1.6461837310578864 0 0 0
9737 1 2 0 65.38673411320808 16.439491469789363 -2.1929867789368713 0 0 0
6946 1 1 0 65.20937144360295 17.998121594042416 -1.647097945276763 0 0 0
9736 1 2 0 67.76793771114629 15.286524536457758 -2.2186019285024363 0 0 0
9734 1 2 0 70.76450548896013 12.452719209834543 -2.2269408893048643 0 0 0
9738 1 2 0 70.38709234527029 15.025658166537948 -2.2608109470895226 0 0 0
6886 1 1 0 71.37161404289175 13.872413827301584 -1.6480446340396744 0 0 0
6887 1 1 0 69.17345809831984 15.938298208663065 -1.6474922045613325 0 0 0
13316 1 2 0 71.393326137133 13.86489370472202 -1.3610254580579163e-07 0 0 0
9740 1 2 0 69.49198286242094 17.44378452012877 -2.2443727882868143 0 0 0
9739 1 2 0 72.8772820272446 14.19519333221912 -2.2460435189155965 0 0 0
6898 1 1 0 75.82524113778081 12.544200261745488 -1.6410000791710593 0 0 0
6948 1 1 0 74.22085501968662 14.941996317100967 -1.6422324488009237 0 0 0
9758 1 2 0 75.55713480728261 14.097169142795298 -2.1288964060787925 0 0 0
9834 1 2 0 74.38338210755572 16.453609970351916 -2.272663876387089 0 0 0
6954 1 1 0 75.08294051966215 17.812986752503733 -1.648045612446282 0 0 0
9842 1 2 0 76.65122221860862 17.884490094943935 -2.1806408890273934 0 0 0
13384 1 2 0 75.06280964245781 17.80528469932999 4.290214409223479e-07 0 0 0
6953 1 1 0 82.39319102177909 15.144156191175085 -1.648184863048558 0 0 0
9771 1 2 0 82.01350077661857 13.630978494427294 -2.235887165850388 0 0 0
9841 1 2 0 83.88402633969527 15.613929779709698 -2.2181975894899137 0 0 0
9840 1 2 0 81.24851898046417 16.2378533819886 -2.1737554300560697 0 0 0
13383 1 2 0 82.41458296866337 15.10707759466893 1.1426014789144616e-07 0 0 0
6955 1 1 0 80.82514977826733 17.76033894088981 -1.647091816964655 0 0 0
9792 1 2 0 86.35401809895956 14.623763914465739 -2.202640932496645 0 0 0
6918 1 1 0 87.68834154225132 13.807105691624491 -1.648028121985951 0 0 0
9791 1 2 0 88.99316233256233 14.68275339923238 -2.2040648213123357 0 0 0
6957 1 1 0 85.42327432650711 15.878899514774822 -1.647221423676963 0 0 0
9847 1 2 0 86.05376979924415 17.328639543728578 -2.1850382912038744 0 0 0
6919 1 1 0 90.37281651095704 15.426896929036712 -1.647676224253182 0 0 0
9789 1 2 0 91.61434470983421 14.505638549007099 -2.2378087794695656 0 0 0
6917 1 1 0 92.67766735979548 13.39503414804243 -1.6484642499572835 0 0 0
9790 1 2 0 94.16969097752063 13.76672881522513 -2.2319479589758933 0 0 0
6925 1 1 0 95.52368159864675 14.493760690804402 -1.646791428221134 0 0 0
9793 1 2 0 90.59199427696848 16.98276230469625 -2.2118183704840937 0 0 0
9802 1 2 0 95.50498233987672 16.03946175956883 -2.2237863048337005 0 0 0
6924 1 1 0 97.88637157043046 12.548542401878127 -1.6482872615845392 0 0 0
9285 1 2 0 99.36738074632596 12.937058078482627 -2.2451887517565634 0 0 0
6591 1 1 0 100.81437380547985 13.440190179156158 -1.6470607932333452 0 0 0
9801 1 2 0 96.80983148487303 13.647654786189634 -2.242767144808854 0 0 0
9283 1 2 0 101.0183109818464 14.973318383054409 -2.219742035558446 0 0 0
6590 1 1 0 101.47199994109725 16.45572858647664 -1.6484011273939874 0 0 0
13020 1 2 0 101.48076943975208 16.505433885276204 -2.933106043877971e-07 0 0 0
13021 1 2 0 100.83543036641781 13.436747229829782 -1.202162297528624e-06 0 0 0
6962 1 1 0 96.09132548845328 17.47280485609642 -1.6468133532292704 0 0 0
9380 1 2 0 97.65492132594588 17.516024195063 -2.193656790341842 0 0 0
9284 1 2 0 100.38573938910469 17.594582664516395 -2.220298603788022 0 0 0
6633 1 1 0 10.695638847785943 19.060799914197958 -1.6423769806770332 0 0 0
9350 1 2 0 12.216849625029925 19.10833598992015 -2.2646760105610864 0 0 0
9351 1 2 0 8.726541746579661 22.69742473428464 -2.253187353422013 0 0 0
6635 1 1 0 10.040839182532052 21.925045798273516 -1.644712942106984 0 0 0
9349 1 2 0 9.869090110120426 20.376294123869293 -2.1701657050428027 0 0 0
9353 1 2 0 11.462768032059667 22.52164283830706 -2.246946791948476 0 0 0
6691 1 1 0 12.438374154807317 23.718353778923692 -1.6448880360071116 0 0 0
9376 1 2 0 17.335106925903148 18.47391880333849 -2.2543248851407798 0 0 0
6648 1 1 0 13.674316651491477 19.53693345735041 -1.6466051856427695 0 0 0
9372 1 2 0 14.692009254436933 18.410929899324596 -2.2535861553123753 0 0 0
9373 1 2 0 14.15703356450589 20.98615301960358 -2.249420022503722 0 0 0
6692 1 1 0 14.965073079619698 22.28704203694454 -1.64567545849973 0 0 0
9439 1 2 0 16.516015140375565 22.25832668408289 -2.231397629621802 0 0 0
13078 1 2 0 13.646623457110488 19.56802681063005 -2.760859559172624e-07 0 0 0
13122 1 2 0 15.044474958971414 22.249000977142583 -4.779582116843517e-07 0 0 0
9437 1 2 0 14.026095023397746 23.577623991849627 -2.148185734354347 0 0 0
7001 1 1 0 17.892224008024886 22.99583588531542 -1.6450827284208889 0 0 0
13431 1 2 0 17.91321140374586 22.9341493600129 -3.723591140712252e-08 0 0 0
6932 1 1 0 18.867688059234684 18.529166763644533 -1.6380056822917357 0 0 0
13362 1 2 0 18.81834540978249 18.68835856696567 2.5507313075677836e-08 0 0 0
9812 1 2 0 19.75161146352613 19.777401503058172 -2.2534903671027453 0 0 0
9816 1 2 0 23.84750830037643 19.483066016746267 -2.1872826542650863 0 0 0
9909 1 2 0 19.319906646721304 22.371113531023767 -2.2162795494050833 0 0 0
7000 1 1 0 20.358992847046586 21.199243868629146 -1.6491502233705049 0 0 0
9859 1 2 0 21.91537831572107 21.41589265925244 -2.1999270409393477 0 0 0
6965 1 1 0 23.45211375650237 21.02252670954095 -1.6491404167179822 0 0 0
13395 1 2 0 23.451066798045424 21.042112098573483 3.2549712903689857e-07 0 0 0
9858 1 2 0 24.572733669001632 22.13842856952067 -2.205080830186244 0 0 0
9656 1 2 0 28.920770192367847 19.01392360342995 -2.17551381867973 0 0 0
9862 1 2 0 29.149109944011844 21.931172228311013 -2.1753278188972915 0 0 0
6966 1 1 0 25.468801914842047 23.449368349812797 -1.645780270540616 0 0 0
9860 1 2 0 27.047370729797322 23.49559927587394 -2.1919882110302416 0 0 0
6967 1 1 0 28.62911967980431 23.450631047966485 -1.6481286055900108 0 0 0
13397 1 2 0 28.686091303340184 23.4716547205105 -4.94207895888696e-08 0 0 0
13398 1 2 0 29.615266740210128 20.42677639866487 -2.1429710852263312e-07 0 0 0
6968 1 1 0 29.694892491716114 20.428866763288436 -1.6463330903733537 0 0 0
9818 1 2 0 33.53809395295446 18.980251140199556 -2.22033036156661 0 0 0
7004 1 1 0 32.80739614353436 20.364728255386936 -1.647192899089544 0 0 0
9864 1 2 0 31.252972089779895 20.343427421652656 -2.2072018304957486 0 0 0
9914 1 2 0 33.579301002236846 21.719255993060216 -2.2183119363424284 0 0 0
7006 1 1 0 34.580698766335175 22.922721460815612 -1.648746652778009 0 0 0
13436 1 2 0 34.58161100458698 22.928724529045983 -1.5763724610653585e-07 0 0 0
9915 1 2 0 36.093370336293034 22.56573457532231 -2.2419492368137166 0 0 0
9681 1 2 0 39.075518798494436 18.268685289540496 -2.184463305878998 0 0 0
6974 1 1 0 39.35489560570621 19.808017118778483 -1.63805347721511 0 0 0
7005 1 1 0 37.59837900263983 22.22520123243536 -1.6472700646922502 0 0 0
9873 1 2 0 38.17028386002106 20.781794472253413 -2.255838971303078 0 0 0
9916 1 2 0 38.6446341540883 23.3693396932315 -2.204093118827954 0 0 0
9871 1 2 0 40.88022166300879 20.08450091409951 -2.216416202374351 0 0 0
6973 1 1 0 42.43069184640226 20.015749202699116 -1.6400675950536463 0 0 0
6979 1 1 0 42.67898952000903 22.968318555616936 -1.6403147413496986 0 0 0
9882 1 2 0 41.32250967147868 23.686790853256117 -2.262087143633562 0 0 0
9693 1 2 0 43.40654490623889 18.833144929751388 -2.2878137841977657 0 0 0
9872 1 2 0 43.030517729638014 21.44671889686522 -2.1847034503374707 0 0 0
9881 1 2 0 44.01369671193439 23.770142756613673 -2.167514512116252 0 0 0
6980 1 1 0 45.578788740342326 23.642576937306558 -1.6465839622598057 0 0 0
9821 1 2 0 48.38029971889467 20.203554223533306 -2.229773288386483 0 0 0
9879 1 2 0 46.41624896931836 22.29848307649237 -2.197590808819086 0 0 0
6978 1 1 0 47.8855559854468 21.690361309347722 -1.6475742175119992 0 0 0
6939 1 1 0 49.2155000775213 18.871566700405047 -1.645521868818828 0 0 0
9820 1 2 0 50.787624717170004 18.734195454270523 -2.1980983219920804 0 0 0
9880 1 2 0 48.99125692340523 22.77040082260517 -2.229825460332007 0 0 0
13369 1 2 0 49.23054541625915 18.971000084965176 -5.097626380818204e-07 0 0 0
9822 1 2 0 53.50593048136896 18.58721310829567 -2.23828576714411 0 0 0
9927 1 2 0 53.77297113428876 23.467603753138192 -2.2751167848024214 0 0 0
6983 1 1 0 54.739496371843195 19.5150980990602 -1.6483215950681052 0 0 0
9886 1 2 0 56.2248611002717 19.084380266401514 -2.229040221424821 0 0 0
9887 1 2 0 54.53909276598528 21.025402934680077 -2.2756168579163574 0 0 0
7014 1 1 0 54.923358237275 22.48494344209906 -1.6446919320806483 0 0 0
9930 1 2 0 56.41786103778612 23.051770317370163 -2.1184009963032726 0 0 0
6984 1 1 0 57.770835524058526 19.04285201171067 -1.645509013277981 0 0 0
9888 1 2 0 58.76830844852255 20.260449577911285 -2.201808378822808 0 0 0
7016 1 1 0 60.26543023115611 20.769945818992404 -1.649128884029238 0 0 0
6947 1 1 0 62.20818600899092 18.38364300154703 -1.6478346741761751 0 0 0
9833 1 2 0 61.39368800351492 19.69708138537338 -2.2164976111126102 0 0 0
9932 1 2 0 60.69929234951806 22.27114256849966 -2.232390679195005 0 0 0
7020 1 1 0 61.53649205501773 23.5932311359403 -1.6471262995687765 0 0 0
13450 1 2 0 61.50373129470521 23.51375692946685 -2.322790296634113e-07 0 0 0
9831 1 2 0 63.75324475161352 18.528591910058108 -2.213252036512169 0 0 0
9938 1 2 0 63.10976915662141 23.632080729478815 -2.195364704795529 0 0 0
9832 1 2 0 66.36371460867292 19.03045685481248 -2.2480568740688716 0 0 0
6986 1 1 0 67.35716081590982 20.215197611598168 -1.6438573589098167 0 0 0
9891 1 2 0 66.94494456430584 21.697513408123996 -2.2413672950001136 0 0 0
7019 1 1 0 67.11848801332015 23.232569849605163 -1.6496974670498934 0 0 0
13449 1 2 0 67.12515538091604 23.24922931771024 -2.2893943132406968e-07 0 0 0
9890 1 2 0 68.9189892192409 19.999221898656387 -2.143874259720426 0 0 0
6987 1 1 0 70.02828614438027 18.884988856281737 -1.6419091065522284 0 0 0
9892 1 2 0 71.49511572294186 19.329222467697992 -2.2666304669280954 0 0 0
9937 1 2 0 68.54994768566465 23.888508842703967 -2.1955771362616647 0 0 0
7022 1 1 0 72.90094487380887 19.951576301184122 -1.6470500456944768 0 0 0
9941 1 2 0 73.08247473143086 21.51265085041282 -2.1753348905393444 0 0 0
13452 1 2 0 72.86220382011321 19.90243662902625 -2.8238535766298314e-07 0 0 0
9843 1 2 0 74.19738591952095 19.08952551354886 -2.2154592385248177 0 0 0
9846 1 2 0 77.61291339994492 20.353316075816522 -2.2132834479733767 0 0 0
6956 1 1 0 77.91134904700134 18.82340115553345 -1.6454721123479508 0 0 0
7049 1 1 0 74.1382019744825 22.68312797733419 -1.6459817192274049 0 0 0
9980 1 2 0 75.65109242249495 22.316488379065976 -2.2261690838104715 0 0 0
7053 1 1 0 77.12863552249001 21.833141454374452 -1.648102004412162 0 0 0
13483 1 2 0 77.10702930503341 21.823712421396117 -5.699072195277733e-07 0 0 0
9844 1 2 0 79.32927758088587 18.1903066248228 -2.2415619968581377 0 0 0
9985 1 2 0 78.22690516987925 22.900017598179936 -2.2570731295511326 0 0 0
9845 1 2 0 81.95708923206776 18.82610333771948 -2.221504995510999 0 0 0
7023 1 1 0 83.06909842866462 19.905646298915535 -1.6476453853886135 0 0 0
9942 1 2 0 82.66819328500804 21.384644793500872 -2.255898469201625 0 0 0
7055 1 1 0 79.41626662780719 23.852408990317464 -1.6464487379498283 0 0 0
9986 1 2 0 80.87206670892682 23.349378992271898 -2.237011334783346 0 0 0
7054 1 1 0 82.33782316195459 22.87603865308667 -1.647251127105195 0 0 0
9987 1 2 0 83.50427016851711 23.896943191637078 -2.215350674241746 0 0 0
13484 1 2 0 82.32383283668189 22.864829755713167 -9.109399394974871e-07 0 0 0
9899 1 2 0 84.57766031836556 19.555294117314194 -2.2214964093923943 0 0 0
6991 1 1 0 85.98977157467287 18.908675245428892 -1.6468266591753 0 0 0
9898 1 2 0 87.23853555898195 19.85359313602676 -2.214814985456584 0 0 0
6992 1 1 0 88.6486102104577 20.54987956446094 -1.6480470666512277 0 0 0
9900 1 2 0 88.872151587819 22.113508716282915 -2.204270565391712 0 0 0
13422 1 2 0 88.62748232845765 20.579233481220434 -1.1808154914969598e-07 0 0 0
7058 1 1 0 89.28970933405283 23.63687610917539 -1.6474676755516953 0 0 0
9896 1 2 0 89.88623726499682 19.596727326316334 -2.206962059334781 0 0 0
6990 1 1 0 90.99969122836332 18.50329561732582 -1.6472743060642132 0 0 0
9897 1 2 0 92.4816573311255 19.022585847288838 -2.2033617058981707 0 0 0
6995 1 1 0 93.91518474529892 19.667783641337 -1.648774211826778 0 0 0
9854 1 2 0 95.15160703028903 18.713863951619295 -2.2228256388948653 0 0 0
9903 1 2 0 94.16626128420084 21.218089443128086 -2.2128914516766716 0 0 0
7026 1 1 0 94.510941229944 22.74917363153398 -1.6465884445931518 0 0 0
9946 1 2 0 93.39513268446558 23.832417003185473 -2.2174242512021873 0 0 0
9945 1 2 0 95.9763946894817 23.295889728933425 -2.201057431898118 0 0 0
6652 1 1 0 98.99391179296154 18.322231117663016 -1.6464551874061075 0 0 0
9379 1 2 0 98.69673626301471 19.869845019452196 -2.182870142519443 0 0 0
9381 1 2 0 98.54416232704436 22.650230935300577 -2.234117088934805 0 0 0
6653 1 1 0 99.32164320348397 21.306691988073364 -1.6437692471186534 0 0 0
9377 1 2 0 100.87175214424192 21.17393565787029 -2.199314270362097 0 0 0
13083 1 2 0 99.27139237128539 21.40037373013309 -4.8241975956840874e-08 0 0 0
7027 1 1 0 97.46366833674567 23.785305542786805 -1.6499092298564946 0 0 0
13457 1 2 0 97.49376881907624 23.810790471318423 4.617101253254063e-08 0 0 0
9436 1 2 0 8.03713593496286 26.8742891901173 -2.2113172438131703 0 0 0