LAMMPS data file via write_data, version 2 Aug 2023, timestep = 219, units = metal

15648 atoms
2 atom types

7.280938554294742 197.5151487099573 xlo xhi
6.429769911732743 171.64320001530353 ylo yhi
-100 100 zlo zhi

Masses

1 28.085
2 15.999

Atoms # full

6686 1 1 0 8.990264276024812 7.200913189216867 -1.6480493777824516 0 0 0
9402 1 2 0 7.858762013500706 8.274793275018181 -2.2181751591906664 0 0 0
9415 1 2 0 10.477571019777491 7.661905397969538 -2.2202596032833726 0 0 0
6685 1 1 0 11.964395620069448 8.118239197680062 -1.64771262395914 0 0 0
9413 1 2 0 12.352532789372932 9.617473846228943 -2.228922653608863 0 0 0
6684 1 1 0 12.714039818892239 11.124426769726856 -1.6475740532681005 0 0 0
9399 1 2 0 7.352264996830909 10.936729595816573 -2.21390250824906 1 0 0
13206 1 2 0 8.984080826622847 7.1924117181113045 -2.104749497624613e-07 0 0 0
9407 1 2 0 11.540950171715341 12.135887058054445 -2.2235532479990407 0 0 0
9416 1 2 0 13.108503792353943 7.076596991270566 -2.2312275724547677 0 0 0
6861 1 1 0 17.175662227507683 6.787531772797491 -1.6479653248208088 0 0 0
9675 1 2 0 17.485629991627412 8.304096352522535 -2.2277555768682444 0 0 0
6859 1 1 0 17.874768753544643 9.802686362691178 -1.6475677123910875 0 0 0
9673 1 2 0 16.770292246686612 10.888468167515462 -2.2262016410845233 0 0 0
9414 1 2 0 14.190374087062619 11.614914294452705 -2.221882020916235 0 0 0
13381 1 2 0 17.1774853608261 6.777194902407247 -3.244867452431144e-07 0 0 0
6857 1 1 0 15.696105556658098 12.008451351466485 -1.647760999968632 0 0 0
13377 1 2 0 15.69103883679596 12.008325821201733 -5.059834154644909e-07 0 0 0
9699 1 2 0 22.88922831207759 7.046555172220836 -2.237329814648599 0 0 0
6873 1 1 0 23.136105808962427 8.569651678730727 -1.6463704023930796 0 0 0
9676 1 2 0 19.369332038057188 10.19892064214492 -2.232094904392097 0 0 0
6863 1 1 0 20.849636586836517 10.645070329436303 -1.6477188502720608 0 0 0
9683 1 2 0 21.982819275045607 9.592518024257771 -2.242686902582226 0 0 0
13393 1 2 0 23.08712475375636 8.556431723564952 -1.9991234712156753e-07 0 0 0
9680 1 2 0 21.155601164395446 12.166429567917103 -2.2138182035436875 0 0 0
9698 1 2 0 26.74396894743471 7.42988503770428 -2.2069319931195546 0 0 0
9697 1 2 0 24.609560089562837 9.08935269216201 -2.186687664607837 0 0 0
6872 1 1 0 26.16659161373025 8.894611428058646 -1.645975434490209 0 0 0
9688 1 2 0 26.991648149544556 10.23914515947199 -2.1975139986621084 0 0 0
6866 1 1 0 27.320691775181473 11.788681815393625 -1.6489377074062548 0 0 0
13386 1 2 0 27.30687260965568 11.82349690958824 -2.8529444532416275e-07 0 0 0
9687 1 2 0 28.868732159066536 12.169381998779745 -2.177624301450441 0 0 0
6875 1 1 0 32.92213563054052 6.98488120110817 -1.6515002366675442 0 0 0
9700 1 2 0 32.70014770986033 8.602990535279176 -2.151857423083662 0 0 0
6874 1 1 0 32.75077123159547 10.229397541189584 -1.6482329121561456 0 0 0
9701 1 2 0 34.205532880167766 10.85770319917652 -2.1989651878276115 0 0 0
9691 1 2 0 31.52657658249886 11.307648986246885 -2.1653049925904853 0 0 0
9714 1 2 0 36.47039457708172 7.3778045045638905 -1.4026795004841135 0 0 0
6882 1 1 0 37.54907175036764 8.584112380564012 -1.5091305052646466 0 0 0
9715 1 2 0 38.950217427027184 8.125464510684942 -2.260440667036919 0 0 0
6888 1 1 0 40.49188420734722 8.131664899965015 -1.6476356721170868 0 0 0
9708 1 2 0 36.71466397349003 9.744013715773029 -2.326725046722447 0 0 0
6878 1 1 0 35.78260770601421 10.945164779916718 -1.6589038623509322 0 0 0
13398 1 2 0 35.714148256193766 10.936918405687482 -8.026843435895478e-07 0 0 0
9707 1 2 0 36.599756806398396 12.257737354658298 -2.256326548521273 0 0 0
9723 1 2 0 41.312065074998785 6.842163306506911 -2.2674093869289074 0 0 0
6905 1 1 0 44.990496898749875 6.818263986289635 -1.6430155307156171 0 0 0
9738 1 2 0 44.40925364777692 8.24550811177243 -2.2290548512988284 0 0 0
9721 1 2 0 41.23746235713943 9.470534330286874 -2.239765897167576 0 0 0
6887 1 1 0 42.03809583652952 10.774702311912343 -1.6449732752136783 0 0 0
9722 1 2 0 43.60441567839955 10.784751408483743 -2.1960315385711477 0 0 0
6897 1 1 0 44.762910326115275 9.742263107528702 -1.6446627289556726 0 0 0
9735 1 2 0 46.272384828925546 10.072687285339525 -2.209213824347857 0 0 0
13417 1 2 0 44.75787924986849 9.766733346038402 8.931412711776513e-08 0 0 0
13425 1 2 0 45.069493445626904 6.84642690716691 6.266167949372281e-07 0 0 0
9719 1 2 0 41.281094421084894 12.082294333400757 -2.267509305942296 0 0 0
6903 1 1 0 50.21057607818013 7.061051694974451 -1.6475262990070512 0 0 0
9741 1 2 0 49.770361242539344 8.535319004390514 -2.2348664288205504 0 0 0
9748 1 2 0 51.710300672298935 6.778916558156366 -2.2504976249151047 0 0 0
6895 1 1 0 47.311877609572214 11.223551991156805 -1.6469709084381372 0 0 0
9736 1 2 0 48.81267057882723 10.976821819004298 -2.256355067342403 0 0 0
6899 1 1 0 50.02743412177369 10.046280591764104 -1.6467975601219267 0 0 0
9740 1 2 0 51.4512639646832 10.658055004421984 -2.205749822002626 0 0 0
13415 1 2 0 47.34663243651481 11.253823034115019 -4.1049981010573134e-07 0 0 0
13419 1 2 0 50.01537034446714 10.026880588308558 -1.791081071361008e-07 0 0 0
9749 1 2 0 46.49179875068593 6.513188113735881 -2.2445118022394293 0 1 0
9759 1 2 0 54.35999049025262 7.043735791092186 -2.246794098018897 0 0 0
6910 1 1 0 55.46260939738418 8.122494780031962 -1.6484591730617857 0 0 0
9760 1 2 0 56.9474130547994 7.734127696109653 -2.2402800988084732 0 0 0
9753 1 2 0 55.13443844749334 9.629189441556896 -2.2388403412769966 0 0 0
6906 1 1 0 55.135129014103455 11.167570835423197 -1.6469258143283092 0 0 0
9743 1 2 0 53.79143905040463 11.916672283714698 -2.2317373510003424 0 0 0
13430 1 2 0 55.433406517212525 8.105548087144813 -1.6524852460413338e-08 0 0 0
6900 1 1 0 52.26125293324169 11.986730910761498 -1.646311408383371 0 0 0
9752 1 2 0 56.3999562242224 12.042215876798842 -2.2338521283054424 0 0 0
13420 1 2 0 52.250351993732984 12.026259772145313 -8.93381066742537e-08 0 0 0
6914 1 1 0 58.39490346248153 7.220453849955454 -1.6462737326748724 0 0 0
9764 1 2 0 59.59248950512086 8.180642385482631 -2.244348903409207 0 0 0
9765 1 2 0 62.23111533193425 8.555555762650245 -2.212722827106855 0 0 0
9762 1 2 0 60.488365845661875 10.67271393450252 -2.2281828100167043 0 0 0
6913 1 1 0 60.79086118422042 9.148694338274472 -1.6479650343767616 0 0 0
13434 1 2 0 58.39918901515715 7.258880366314754 -2.95458229162147e-07 0 0 0
6912 1 1 0 60.23969322430508 12.204317045940277 -1.6470459104840824 0 0 0
6921 1 1 0 63.6773254830279 7.962437664224983 -1.6482034694421799 0 0 0
9769 1 2 0 64.84636537075077 9.014587887456628 -2.2024363110485132 0 0 0
6915 1 1 0 65.95211555917071 10.134863818177008 -1.6484121075713891 0 0 0
9767 1 2 0 67.4316103959551 9.618802908690256 -2.2138925403657352 0 0 0
9768 1 2 0 65.62306271567357 11.687809750609286 -2.1954163596418996 0 0 0
13435 1 2 0 65.94384712222943 10.158354614879507 -1.4023844287706122e-07 0 0 0
13441 1 2 0 63.69452496738355 7.939878821572546 -8.73390401683407e-07 0 0 0
9771 1 2 0 69.23833474639568 7.558849381371937 -2.212117661202755 0 0 0
6916 1 1 0 68.903996522627 9.095642110819325 -1.6484249581972994 0 0 0
9770 1 2 0 70.05807668658177 10.14336846190989 -2.2156444082292968 0 0 0
9775 1 2 0 72.65531866235942 10.773783366849665 -2.228914414013621 0 0 0
6929 1 1 0 74.1646543972208 10.414962632598312 -1.647461738178577 0 0 0
6918 1 1 0 71.16767146029443 11.233022015961271 -1.647880429036276 0 0 0
13436 1 2 0 68.89436205333674 9.089127070738915 -1.7176208858297935e-07 0 0 0
13438 1 2 0 71.18330669126235 11.24560105533742 4.52585039885942e-08 0 0 0
6930 1 1 0 75.4223012231284 7.608562759360129 -1.6478799883702382 0 0 0
9794 1 2 0 76.96346648945375 7.3943564411353115 -2.234505378728794 0 0 0
6941 1 1 0 78.36855755794932 6.716359033402673 -1.6453424232347644 0 0 0
9808 1 2 0 79.74975607820237 7.4568426365839695 -2.183483447296091 0 0 0
9791 1 2 0 74.71614515813579 8.976955448374241 -2.239125573000164 0 0 0
9807 1 2 0 79.816666827158 10.038454519289907 -2.2810663175616535 0 0 0
9792 1 2 0 75.2480684635835 11.49671103111772 -2.243412877722753 0 0 0
6940 1 1 0 79.32405378477593 11.467145587747906 -1.6116522234119814 0 0 0
13450 1 2 0 75.4684535903165 7.643887914287079 -2.705276152353895e-07 0 0 0
9803 1 2 0 77.89433321824343 12.035509260423531 -2.2528759377632777 0 0 0
9809 1 2 0 82.21156664806853 8.638187646851836 -2.2122940024798736 0 0 0
6942 1 1 0 83.78075809007355 8.469398004888648 -1.6491219573416633 0 0 0
9813 1 2 0 84.36848155983054 6.980259782157789 -2.1709191161861643 0 0 0
6939 1 1 0 80.6480909393242 8.746125056502997 -1.6500778364512527 0 0 0
9812 1 2 0 84.69784069589544 9.777221637070468 -2.1930524042872475 0 0 0
6943 1 1 0 85.34672902384585 11.233793134253236 -1.6474466319486716 0 0 0
13463 1 2 0 85.34390094170645 11.186680285458047 -3.472789937129278e-07 0 0 0
13459 1 2 0 80.70437265078618 8.801909987463418 -3.548965040266405e-07 0 0 0
6953 1 1 0 89.79854475105542 6.643096115777837 -1.645035131394672 0 0 0
9829 1 2 0 89.91308279576839 8.181817284793407 -2.235875014697803 0 0 0
6952 1 1 0 90.46895332913977 9.631348850152023 -1.650033060740891 0 0 0
9827 1 2 0 89.50000426324986 10.842466349867191 -2.2243014944581647 0 0 0
9815 1 2 0 86.90741136034566 11.49919194027881 -2.195910680836484 0 0 0
13473 1 2 0 89.86127494298056 6.6909933398594905 -8.651444141043398e-08 0 0 0
6951 1 1 0 88.41862158531998 11.963353016357171 -1.6481188723739268 0 0 0
13471 1 2 0 88.3840241645354 11.97992417345697 -6.743893493774433e-07 0 0 0
6958 1 1 0 94.78654051486917 7.322096835331649 -1.6448654950325332 0 0 0
9837 1 2 0 94.64187837380763 8.881947531722194 -2.1727982091398217 0 0 0
9840 1 2 0 96.11279638955705 6.5752343636188515 -2.268475751644937 0 0 0
9830 1 2 0 92.00295520623584 9.828165032544769 -2.2492882352507584 0 0 0
6957 1 1 0 93.53106543145658 10.000004427236851 -1.6441744037322044 0 0 0
9838 1 2 0 94.11348889668292 11.429317287596259 -2.2053517339671234 0 0 0
9845 1 2 0 96.7990326954131 11.807798731377563 -2.2329349528795386 0 0 0
9839 1 2 0 93.42887739949985 6.60567102873094 -2.2420132768415977 0 1 0
13478 1 2 0 94.84898676884117 7.258909225621633 2.0073407215634786e-07 0 0 0
13477 1 2 0 93.44998143677674 9.965219155618739 -9.498507052205877e-08 0 0 0
6961 1 1 0 99.35805705293073 8.324674376829638 -1.6468740474802592 0 0 0
9844 1 2 0 98.73787735840709 6.887278831799838 -2.188084481626281 0 0 0
9216 1 2 0 100.91483403151341 8.395604444750186 -2.2144091798010246 0 0 0
9843 1 2 0 98.43453670370228 9.589173185779899 -2.209943071728419 0 0 0
6962 1 1 0 98.2050695803549 11.139933862311073 -1.648388027607478 0 0 0
6568 1 1 0 102.34892113255681 7.781502692828951 -1.647941909657007 0 0 0
13088 1 2 0 102.35419533395307 7.778803800047199 -2.6166293829592885e-08 0 0 0
9486 1 2 0 99.50727963195752 11.991567445607815 -2.2133472779354815 0 0 0
6675 1 1 0 7.564712971860589 12.484378525966104 -1.6482652276327359 0 0 0
9400 1 2 0 9.015506553742226 13.074253408106262 -2.2138885225206897 0 0 0
6680 1 1 0 10.559925405742888 13.337359347346531 -1.647692781381663 0 0 0
9406 1 2 0 11.209127838837937 14.756835189670008 -2.209264399689249 0 0 0
6683 1 1 0 11.49371017799085 16.296086066542053 -1.6478282690294308 0 0 0
9410 1 2 0 10.191504389829369 17.15866335246289 -2.2118754294371086 0 0 0
13200 1 2 0 10.529616889458763 13.339720893472721 -1.4032455464257594e-06 0 0 0
13203 1 2 0 11.519395289245043 16.312583788503215 -2.189913516479615e-07 0 0 0
9408 1 2 0 7.528973246561952 17.898894511037835 -2.2149651543096325 0 0 0
13202 1 2 0 9.007562014607137 18.215408580131207 -1.0786334640654278e-07 0 0 0
9412 1 2 0 12.9589597004417 16.88911339665064 -2.2009608149624165 0 0 0
9672 1 2 0 16.13957671906447 13.497529791538824 -2.223214370357133 0 0 0
6858 1 1 0 16.635017580455674 14.974627251746776 -1.647769209199192 0 0 0
9674 1 2 0 18.17442480535503 15.268097976666203 -2.208040484079442 0 0 0
6750 1 1 0 14.502239078901054 17.263327134431528 -1.6481973233361622 0 0 0
9515 1 2 0 15.561402144376027 16.109601299702188 -2.210101102409941 0 0 0
13378 1 2 0 16.635781654329975 14.970804564549686 4.966401902350966e-08 0 0 0
13270 1 2 0 14.462362396685668 17.265929843484056 3.788574582090482e-08 0 0 0
9681 1 2 0 20.893632096618344 14.832900904139878 -2.201647849109714 0 0 0
6864 1 1 0 19.649009153514317 15.808927135526659 -1.6484684820781348 0 0 0
6862 1 1 0 21.8372840212584 13.566740351232903 -1.6476699298650292 0 0 0
9682 1 2 0 23.411714795146974 13.54851418672199 -2.1981031353987444 0 0 0
9684 1 2 0 19.833208738173738 17.366048080292444 -2.204640954044542 0 0 0
13382 1 2 0 21.851843159386018 13.608102359282409 -9.831801937009291e-08 0 0 0
9686 1 2 0 26.139726802793323 12.868673325164563 -2.190568801363514 0 0 0
6867 1 1 0 24.944614673011266 13.922424088846117 -1.6481087905799543 0 0 0
9689 1 2 0 25.17149210705523 15.465756550237789 -2.21869795547855 0 0 0
6870 1 1 0 25.531810302507196 16.980580180887966 -1.647215616506772 0 0 0
9694 1 2 0 27.07211512984401 17.227708009604502 -2.202121408398209 0 0 0
13387 1 2 0 24.97493571513969 13.890904111320722 7.064306621527311e-07 0 0 0
9695 1 2 0 24.480541377608763 18.150161707167836 -2.213956952307779 0 0 0
6871 1 1 0 28.53052482373402 17.783484762361173 -1.6459298352244296 0 0 0
9692 1 2 0 29.746419661046012 16.757716352851975 -2.192554570745576 0 0 0
6868 1 1 0 30.431513027050773 12.50911787986988 -1.648699648956486 0 0 0
9690 1 2 0 30.771841216880915 14.09207661050401 -2.1635013945512065 0 0 0
6869 1 1 0 30.947307772960084 15.693471923720265 -1.6508064125856983 0 0 0
9693 1 2 0 32.41852965635054 16.283915127185537 -2.214037862961827 0 0 0
6881 1 1 0 33.72662482735905 17.155501824624878 -1.6465226300645768 0 0 0
9711 1 2 0 35.20553930698114 16.688008066177595 -2.2583521673519127 0 0 0
13401 1 2 0 33.70588838247266 17.0261792150161 -2.1597408372862161e-07 0 0 0
6879 1 1 0 37.622228369001654 13.373054758511838 -1.5943840327557322 0 0 0
9710 1 2 0 39.13563615095541 13.584872796254098 -2.2650886629699993 0 0 0
6886 1 1 0 40.6744860353321 13.484803316660376 -1.650375216070054 0 0 0
9709 1 2 0 36.74525612505964 14.716868546133787 -1.8708703256871613 0 0 0
6880 1 1 0 36.68640289685289 16.32167322297896 -1.6050827155445602 0 0 0
9712 1 2 0 38.09000226775856 16.916951723009504 -2.307143012517874 0 0 0
13399 1 2 0 37.85941635688408 13.017044006916395 1.0896480858308226e-06 0 0 0
13413 1 2 0 39.508511032716854 17.261612719536092 -7.745349646948148e-08 0 0 0
6893 1 1 0 39.140740904680555 17.924592908029744 -1.4930626399866627 0 0 0
9720 1 2 0 41.726877886119944 14.66332679941704 -2.206621969863621 0 0 0
6891 1 1 0 43.27327219558288 14.907417744060558 -1.6446887869458406 0 0 0
9728 1 2 0 44.37338070282898 13.750327567367076 -2.141658250451803 0 0 0
6896 1 1 0 45.955606526232266 13.873956273850904 -1.6464057974153252 0 0 0
9727 1 2 0 43.959744817342056 16.269582684081833 -2.2694291450977198 0 0 0
13416 1 2 0 45.969401467210744 13.830355491366696 -5.176714415069262e-07 0 0 0
6892 1 1 0 44.43242949893739 17.721054520948364 -1.6457926767292748 0 0 0
13412 1 2 0 44.516467176043236 17.653341709311885 -1.5704073951736152e-07 0 0 0
9734 1 2 0 46.815463133723874 12.641690649625465 -2.2971277540238204 0 0 0
9737 1 2 0 46.78567262407175 15.210341084924424 -2.188811342008759 0 0 0
6902 1 1 0 48.264068087764905 15.725845631057538 -1.6344949836688953 0 0 0
9744 1 2 0 49.59464285575968 14.988705397719523 -2.2712908455893306 0 0 0
6901 1 1 0 51.12096836841567 14.803120334746511 -1.6515813486086264 0 0 0
9742 1 2 0 51.586447799302135 13.34897265733404 -2.2626460729833795 0 0 0
9746 1 2 0 48.37981193651345 17.299928115383096 -2.0901909152727693 0 0 0
13422 1 2 0 48.31072574134078 15.550355487724277 -7.061407576098128e-07 0 0 0
6907 1 1 0 57.345188480907765 13.265930500821579 -1.6483080446433118 0 0 0
9754 1 2 0 56.809459804436976 14.730617155786948 -2.2208579133273094 0 0 0
9745 1 2 0 52.15672619097884 15.956572426397837 -2.221426943429127 0 0 0
6909 1 1 0 53.28502193252962 17.020257998267827 -1.647119978541416 0 0 0
9756 1 2 0 54.778217280625135 16.564566482424667 -2.219840696665635 0 0 0
6908 1 1 0 56.29755926950834 16.207564336695206 -1.6481673669024328 0 0 0
9757 1 2 0 57.32826726744143 17.37102483619287 -2.216479664017349 0 0 0
13428 1 2 0 56.288003951036934 16.191256671167984 3.47824913533817e-08 0 0 0
9755 1 2 0 58.85392689553848 12.90562636468868 -2.2239007984424854 0 0 0
9763 1 2 0 61.4769106432895 13.123236440591196 -2.225125837437049 0 0 0
9787 1 2 0 61.84027607428631 15.76027202457635 -2.211488580246641 0 0 0
6926 1 1 0 62.45444750806525 14.318140130483386 -1.6469624528896185 0 0 0
6980 1 1 0 61.41569937621346 17.270630591795413 -1.6476657892269113 0 0 0
9870 1 2 0 59.95226649486039 17.8423352814266 -2.209516394140752 0 0 0
6917 1 1 0 65.39046902662636 13.257917787258418 -1.6480639735368277 0 0 0
9773 1 2 0 63.96966475314671 13.924646819912919 -2.2090731493726787 0 0 0
9772 1 2 0 66.58254166854759 14.279039741497922 -2.2032474358987764 0 0 0
6920 1 1 0 67.66346834377832 15.418943672364659 -1.6489627017933226 0 0 0
9778 1 2 0 67.32207029636021 16.95885064702982 -2.2092547755669343 0 0 0
13440 1 2 0 67.64461210451574 15.43683625220555 -3.8815956427493526e-08 0 0 0
9774 1 2 0 70.75348885932326 12.736030209343825 -2.221436979506936 0 0 0
9776 1 2 0 69.15933626904294 14.96399065410257 -2.2177664470138696 0 0 0
6919 1 1 0 70.56469588358013 14.282855656738827 -1.6464992582319398 0 0 0
9777 1 2 0 71.86512483997927 15.15548083269491 -2.189662244599468 0 0 0
6938 1 1 0 72.78457802820324 16.42549918694941 -1.6490357538482143 0 0 0
9804 1 2 0 74.34441457145981 16.22520873091248 -2.2396454169783944 0 0 0
13439 1 2 0 70.52669233279511 14.272278012408186 4.151692110958323e-08 0 0 0
13458 1 2 0 72.82874200486194 16.480934422789662 2.3566781084030792e-07 0 0 0
9806 1 2 0 72.04002957943003 17.80099127239646 -2.2206804940480054 0 0 0
6936 1 1 0 76.40871704770042 12.494626193306976 -1.646287467227815 0 0 0
9802 1 2 0 75.90152632642328 13.962704932807625 -2.2075586627645705 0 0 0
6937 1 1 0 75.73074842134037 15.507827546750299 -1.6422814604955684 0 0 0
9805 1 2 0 77.14142731338092 16.238508861121815 -2.184236392486041 0 0 0
9818 1 2 0 79.63996033334182 14.812066465322694 -2.320115549525827 0 0 0
6986 1 1 0 78.65612953891029 15.916575379044634 -1.551734369717887 0 0 0
9876 1 2 0 79.60906781084486 17.240962168052633 -1.6215230976823602 0 0 0
13456 1 2 0 76.44924065543948 12.495704005661034 4.6905446529069475e-07 0 0 0
13457 1 2 0 75.59189188651281 15.55823494024828 -7.25794185823394e-07 0 0 0
9810 1 2 0 80.62647062614508 12.440319511186065 -1.9054493975679514 0 0 0
9814 1 2 0 84.44727871165527 12.5346168256497 -2.186042111325354 0 0 0
6945 1 1 0 80.94089473085369 14.035118702799254 -1.6145926833254745 0 0 0
9816 1 2 0 82.44761396675486 14.359766127369744 -2.2442157213247964 0 0 0
6944 1 1 0 83.98026187010197 14.047633230725934 -1.651939366152469 0 0 0
9817 1 2 0 84.98475741060874 15.263182693192213 -2.2061235201840357 0 0 0
13465 1 2 0 81.01028783775148 14.405043470328946 -4.537515117703485e-07 0 0 0
13464 1 2 0 83.98605522600583 14.047228741217804 -6.275502386386586e-08 0 0 0
9828 1 2 0 88.96546981799793 13.452706859393192 -2.1851732900369374 0 0 0
9834 1 2 0 87.65845778094467 15.747606450112311 -2.221652083079594 0 0 0
6955 1 1 0 89.03871955927261 15.039713453712617 -1.6474948616527263 0 0 0
6956 1 1 0 86.1981414717963 16.26732484645491 -1.6471008474359161 0 0 0
9835 1 2 0 90.32593259511087 15.963725090805612 -2.2023019227511242 0 0 0
13475 1 2 0 89.0931269810608 15.032777649502567 -1.8623320058311049e-07 0 0 0
13476 1 2 0 86.16773066762315 16.2442397120625 -1.1277368072472576e-07 0 0 0
9836 1 2 0 86.10956981324846 17.8341421618085 -2.19432677677911 0 0 0
6966 1 1 0 95.345828918117 12.373175224910552 -1.6475360398679797 0 0 0
9877 1 2 0 92.96102321672204 15.82014986908465 -2.200468181321791 0 0 0
6987 1 1 0 94.44173964487398 15.31650325736528 -1.6472356161873596 0 0 0
9850 1 2 0 94.91802490044178 13.851985584588087 -2.247298755179334 0 0 0
6988 1 1 0 91.69836042713109 16.75951382823404 -1.648122734427754 0 0 0
9878 1 2 0 95.5732780871751 16.3484369645481 -2.244047157386025 0 0 0
6993 1 1 0 96.7411515411305 17.33380363345033 -1.6460297228940317 0 0 0
13507 1 2 0 94.41605573193503 15.284472446552979 -9.619540831387577e-08 0 0 0
13508 1 2 0 91.65710376748642 16.790950103277858 -4.5290811882097133e-07 0 0 0
9212 1 2 0 101.95302850372974 13.115032619194865 -2.2457445182676024 0 0 0
6731 1 1 0 100.4144213358098 13.246568125073788 -1.6463902664124022 0 0 0
9485 1 2 0 99.67594341109499 14.61323770952761 -2.2096510007161387 0 0 0
6732 1 1 0 99.56999460835473 16.160651162577395 -1.6472200912746018 0 0 0
9487 1 2 0 98.20549672304654 16.868541938086455 -2.2526316263947783 0 0 0
9483 1 2 0 100.89598213740408 16.933848209874117 -2.2424688939484603 0 0 0
13251 1 2 0 100.46597096065767 13.25190243486036 -5.151743388436936e-07 0 0 0
6730 1 1 0 101.99474506017263 18.001828385624787 -1.6473826336919446 0 0 0
6682 1 1 0 9.065268693118737 18.237168396304412 -1.6465713450916357 0 0 0
9411 1 2 0 9.625833251905014 19.689435821433825 -2.2053183889110355 0 0 0
9480 1 2 0 8.52087371581765 22.02495506832648 -2.2173250737109633 0 0 0
6728 1 1 0 9.87017062681192 21.229126095571367 -1.6476666062353205 0 0 0
9481 1 2 0 11.35249525456857 21.795112349222855 -2.203498075580786 0 0 0
6749 1 1 0 12.895118166381076 22.187274356021522 -1.6460572617879974 0 0 0
9514 1 2 0 15.086595094257769 18.729319155408533 -2.193199371507829 0 0 0
6751 1 1 0 15.388327598959137 20.288158960926054 -1.6481457967737752 0 0 0
9512 1 2 0 14.069735803524846 21.14653994205545 -2.2029303392293422 0 0 0
9516 1 2 0 16.84748858983495 20.95235400183954 -2.1731567020499867 0 0 0
6968 1 1 0 18.4181332177295 21.344250119006784 -1.6500438542582943 0 0 0
13271 1 2 0 15.411869430151933 20.27812814872121 -4.9822409962073464e-08 0 0 0
9513 1 2 0 13.419840046309897 23.671191350995404 -2.1766029976336383 0 0 0
6967 1 1 0 20.3586279624409 18.847896087855165 -1.6476129572318954 0 0 0
9851 1 2 0 19.399456779763618 20.09618359774188 -2.1932844220457333 0 0 0
9852 1 2 0 21.9039073996484 19.01881525989454 -2.2309450970443487 0 0 0
6969 1 1 0 23.423665036046938 19.32504039210801 -1.6475848093104621 0 0 0
9853 1 2 0 19.105087739054746 22.807913758921774 -2.166242615899359 0 0 0
9854 1 2 0 23.745502706197644 20.887086647180094 -2.150656039259515 0 0 0
13487 1 2 0 20.349240980993745 18.8450251710546 3.2604811632442186e-11 0 0 0
9696 1 2 0 28.563595396987242 19.378136147752734 -2.1861242689136495 0 0 0
6997 1 1 0 24.957815481273403 21.918770518413016 -1.6438284764631932 0 0 0
9890 1 2 0 26.28377122933898 21.061365542488634 -2.179987225040546 0 0 0
6996 1 1 0 27.833636284873396 20.787510927688512 -1.6505169520942367 0 0 0
9891 1 2 0 28.572768095586838 22.13139917164374 -2.274918134744675 0 0 0
9892 1 2 0 24.77909423056863 23.490910574310764 -2.2268718305501194 0 0 0
13520 1 2 0 29.641256740942143 23.15603872367974 -8.700850690535288e-08 0 0 0
9713 1 2 0 33.64310870717902 18.730361637212646 -2.1662357702813364 0 0 0
6998 1 1 0 34.473976205103064 20.070215152321556 -1.6524071771045692 0 0 0
9895 1 2 0 31.10811090791863 22.139327809841767 -2.0657330785957706 0 0 0
6999 1 1 0 32.659031741166714 22.452036229361674 -1.6337274323847126 0 0 0
9893 1 2 0 33.61690565300926 21.31307678369782 -2.3042810940596916 0 0 0
13518 1 2 0 34.50884667761249 20.049538971770293 -2.525818272025986e-07 0 0 0
7000 1 1 0 29.788268001727495 23.031582888940225 -1.634906700523574 0 0 0
9896 1 2 0 33.01556678696317 23.90747540957868 -2.305606096761599 0 0 0
9894 1 2 0 36.01279055741485 20.27158703796962 -2.2597045836986727 0 0 0
9732 1 2 0 38.28582822893327 19.29012811001263 -1.2933934113907626 0 0 0
9731 1 2 0 40.57274597872332 18.306072495124564 -2.2612683263836906 0 0 0
7001 1 1 0 37.43304622742057 20.655627506337517 -1.4923092223358279 0 0 0
9898 1 2 0 38.46676879540958 21.63985170919445 -2.3464201797262354 0 0 0
7005 1 1 0 39.43002929318249 22.78351610692823 -1.621011895847577 0 0 0
13525 1 2 0 39.56506513347673 22.454022334296514 -7.94745433063722e-07 0 0 0
13521 1 2 0 37.0693898307284 21.302517466806414 -2.9322294399847148e-08 0 0 0
9904 1 2 0 38.55620852873841 24.12799127015526 -1.9810581979509616 0 0 0
6894 1 1 0 41.8112353563393 19.251275247952368 -1.6480854635416946 0 0 0
9729 1 2 0 43.262128387633474 18.723966134600897 -2.1941603624169805 0 0 0
9730 1 2 0 45.85362429661771 18.30201347913203 -2.2672837139097566 0 0 0
9733 1 2 0 41.857950479120554 20.79536221467834 -2.2324796894406447 0 0 0
7004 1 1 0 42.31287356770064 22.27774644842956 -1.6413420019595453 0 0 0
9903 1 2 0 43.75017404256243 22.89247715243825 -2.2293681432662504 0 0 0
13414 1 2 0 41.6934230409018 19.250174706900946 -1.4412679360372482e-07 0 0 0
9902 1 2 0 40.97457846516902 23.141405910512145 -2.1505650302665873 0 0 0
7041 1 1 0 44.914735615308544 23.957125314989984 -1.6510981633799808 0 0 0
13561 1 2 0 44.92333601212925 23.93490004468028 -7.024085974027194e-08 0 0 0
6976 1 1 0 47.37113511777744 18.522736490980392 -1.635790762373939 0 0 0
9864 1 2 0 48.13099258135958 19.840831110999588 -2.261159628056428 0 0 0
9905 1 2 0 50.86028526495698 20.398919090503238 -2.2168517125908043 0 0 0
9907 1 2 0 48.8816171930734 22.273267669830815 -2.211028162409375 0 0 0
7007 1 1 0 49.34381684063734 20.793006648629596 -1.6496266054394277 0 0 0
13527 1 2 0 49.376936257312195 20.74329923165811 -5.959916144783851e-09 0 0 0
9957 1 2 0 46.453721183809115 23.60662328678728 -2.2082564271631986 0 0 0
7040 1 1 0 48.032658212462884 23.5733297714309 -1.6459779058717487 0 0 0
13560 1 2 0 47.96681938765089 23.58719002228149 -1.8366700126732553e-07 0 0 0
7006 1 1 0 52.37744162244626 19.99253370919777 -1.647724518125803 0 0 0
9758 1 2 0 52.82795898850576 18.504446333611142 -2.222903427987207 0 0 0
9906 1 2 0 53.53849824336714 21.03385894468336 -2.2086041636881393 0 0 0
7009 1 1 0 54.55034765887521 22.22455601788924 -1.6474279949463664 0 0 0
9908 1 2 0 56.11765090616922 21.931513969468966 -2.190852839854646 0 0 0
13528 1 2 0 57.61810231236107 21.454466433268674 -1.5500362184705857e-07 0 0 0
9910 1 2 0 53.841896781417276 23.633183965400388 -2.1988350667887993 0 0 0
7008 1 1 0 57.639810847927706 21.458548165777437 -1.6492188090146722 0 0 0
9871 1 2 0 62.57388429808974 18.2899141604041 -2.23222884803202 0 0 0
9872 1 2 0 58.08394587714458 19.938325956290132 -2.1957498660861012 0 0 0
6981 1 1 0 58.48523126039015 18.412167800291535 -1.6475019347249962 0 0 0
9909 1 2 0 58.80472809482071 22.523659114465755 -2.2061327864044573 0 0 0
9960 1 2 0 61.560289455073814 22.61153165771441 -2.2081155828915 0 0 0
7042 1 1 0 63.084278693111315 22.24577659955577 -1.648200949178236 0 0 0
13501 1 2 0 58.515378728402894 18.433497675125714 -2.0155152030068008e-07 0 0 0
13562 1 2 0 63.07004604455261 22.27025081924051 -9.540674968973858e-07 0 0 0
7043 1 1 0 60.16014938143775 23.31991681455603 -1.6472987192959283 0 0 0
13563 1 2 0 60.146074943047665 23.29291884518085 -1.1956022507247702e-07 0 0 0
6984 1 1 0 63.785245685437566 19.24157589282305 -1.6471875274464887 0 0 0
9873 1 2 0 65.217210545326 18.639715881342983 -2.2174105355559046 0 0 0
6983 1 1 0 66.76125550823808 18.43211461318795 -1.6475444525622263 0 0 0
9874 1 2 0 67.60194549669686 19.767706129719755 -2.1840936942424514 0 0 0
9875 1 2 0 63.5084545229691 20.760949865265662 -2.234126089585661 0 0 0
9920 1 2 0 68.74228784615441 22.327301362189335 -2.189083847011511 0 0 0
13504 1 2 0 63.790069358701885 19.249607772295725 -7.78622159971923e-08 0 0 0
9961 1 2 0 64.24492761345057 23.281229968102874 -2.2213123150683374 0 0 0
7046 1 1 0 68.35284472950279 23.88036554351921 -1.6499727396024506 0 0 0
7015 1 1 0 68.85144875569594 20.735451229555906 -1.647415114900853 0 0 0
9918 1 2 0 70.19033240131265 19.931504077829462 -2.224152136807891 0 0 0
7014 1 1 0 71.61115797234741 19.302227048284045 -1.645417017132679 0 0 0
9919 1 2 0 72.74207150200324 20.326794472927027 -2.2375154249577767 0 0 0
7020 1 1 0 74.00752850173171 21.176119584293037 -1.6522580115858874 0 0 0
9928 1 2 0 73.62870595753768 22.717798880750188 -2.191198287077899 0 0 0
13540 1 2 0 74.11167332285679 21.219995171983253 -4.2454359588403604e-07 0 0 0
7019 1 1 0 76.8757854525241 20.263821115185735 -1.6326578160915328 0 0 0
9924 1 2 0 78.10892557453272 19.299068309765975 -2.2311175615502643 0 0 0
7018 1 1 0 79.5867008246671 18.870887684405027 -1.551925236173467 0 0 0
9926 1 2 0 75.32235703606717 20.29179548685213 -2.220915104099887 0 0 0
9927 1 2 0 77.34878803560261 21.756249430658446 -2.193573368388312 0 0 0
7054 1 1 0 78.69372747208473 22.439402604128265 -1.5682026293915117 0 0 0
13538 1 2 0 79.59763472397398 19.461031739404756 -2.8700744349941313e-07 0 0 0
10021 1 2 0 75.7244764407469 24.057063694670852 -2.320127262752669 0 0 0
9979 1 2 0 78.44489172236426 24.0468792892359 -1.730302471596151 0 0 0
9978 1 2 0 80.09050318689972 22.002824023514005 -2.3083459675629063 0 0 0
9925 1 2 0 81.05739722968183 19.247348621974734 -2.2560215408843285 0 0 0
7022 1 1 0 82.5081608898506 19.800602967041247 -1.6407152914372096 0 0 0
9929 1 2 0 83.91247310786613 19.16318611717094 -2.233580222967527 0 0 0
7021 1 1 0 85.47743959870981 19.27005446984466 -1.6503390719661 0 0 0
7055 1 1 0 81.54844137936435 22.474042533215872 -1.6487621499487028 0 0 0
9931 1 2 0 82.67321923993592 21.386681723025674 -2.1194255985273407 0 0 0
9980 1 2 0 81.94038342781414 23.936824835641158 -2.271545890398813 0 0 0
9930 1 2 0 86.35568404603315 20.594159620617443 -2.204406013294108 0 0 0
7026 1 1 0 87.25446791315693 21.901573941202706 -1.6485453328699948 0 0 0
7027 1 1 0 90.3618449601407 22.27652864501975 -1.6469924978483177 0 0 0
9937 1 2 0 88.84266155655386 21.80276352466943 -2.160482459874337 0 0 0
13547 1 2 0 90.41796069521266 22.3023741266671 -2.793661304364563e-07 0 0 0
13546 1 2 0 87.1875619906191 21.894700441571906 1.5898937281249134e-07 0 0 0
9938 1 2 0 86.64660344590524 23.35189785706053 -2.235821822382596 0 0 0
9939 1 2 0 90.6737381227502 23.841622025358056 -2.1990549751045223 0 0 0
9879 1 2 0 91.89525359433146 18.356877287669818 -2.167350198345058 0 0 0