LAMMPS data file via write_data, version 2 Aug 2023, timestep = 236, units = metal

15648 atoms
2 atom types

7.989229772840554 196.58549368468067 xlo xhi
6.049557703688268 171.8865521092273 ylo yhi
-100 100 zlo zhi

Masses

1 28.085
2 15.999

Atoms # full

9356 1 2 0 8.636541492978235 6.968198414478941 -2.23531579573405 0 0 0
9369 1 2 0 11.200750372043476 6.23468453965487 -2.2348075662271705 0 0 0
6660 1 1 0 12.604229590717155 6.892386887853164 -1.6495117591057324 0 0 0
9367 1 2 0 12.776690665402555 8.439101958778814 -2.2117884557473113 0 0 0
6650 1 1 0 8.481644204688038 10.873986999120586 -1.6464726154655869 0 0 0
9361 1 2 0 12.69393988973617 11.102571235642667 -2.2100380376235353 0 0 0
9354 1 2 0 10.006940057696518 11.140156429112684 -2.23002932918479 0 0 0
13170 1 2 0 8.52414687007042 10.801866383769159 2.311113126927903e-08 0 0 0
6659 1 1 0 13.54640785684039 9.794988385740869 -1.6485422167004424 0 0 0
13179 1 2 0 13.574060695986518 9.796568664788582 -9.259170014970387e-08 0 0 0
6655 1 1 0 11.359016537027864 11.912303875674882 -1.6502858431726226 0 0 0
13175 1 2 0 11.342100555863597 11.931882791520263 -3.920333837982278e-07 0 0 0
6842 1 1 0 18.729798137475893 8.07569330603694 -1.6486148733712191 0 0 0
9640 1 2 0 18.06815136867626 6.6786431650058065 -2.232650905932955 0 0 0
6839 1 1 0 16.582172889577624 10.313717817169557 -1.6507743866986384 0 0 0
9368 1 2 0 15.100455339553244 9.836702655587663 -2.2294092930552427 0 0 0
9636 1 2 0 17.78834122284458 9.32045125994812 -2.2230341760030674 0 0 0
13362 1 2 0 18.739862993868076 8.104765586831036 -2.7878496190680204e-07 0 0 0
9635 1 2 0 16.812725078131333 11.856218181469874 -2.2213133035469466 0 0 0
9641 1 2 0 20.283653117092143 8.126200745382532 -2.2232596106585056 0 0 0
6846 1 1 0 21.82819978556269 8.333865833376063 -1.6483321743402894 0 0 0
9648 1 2 0 22.88096040109568 7.172515342682783 -2.2126028444671073 0 0 0
9645 1 2 0 22.278701853034907 9.816727540653643 -2.2267275775740374 0 0 0
6845 1 1 0 22.80671306270911 11.271235927997907 -1.6493787863171026 0 0 0
9647 1 2 0 24.340288867302235 11.426196562340559 -2.2317732733651376 0 0 0
13365 1 2 0 22.782176059436246 11.283629021631857 8.252745743065803e-07 0 0 0
9662 1 2 0 25.43526642926146 6.109886566994604 -2.1945371905624556 0 0 0
6854 1 1 0 26.98202429271985 6.473998108002135 -1.6493257440318148 0 0 0
9652 1 2 0 27.396983124039732 7.994165786441919 -2.2037386986123817 0 0 0
9651 1 2 0 26.914378305256683 10.688302923593533 -2.220280906493089 0 0 0
6848 1 1 0 27.909070058782007 9.479784818473265 -1.648803173602739 0 0 0
9650 1 2 0 29.441384230485067 9.79307845456641 -2.21291957158613 0 0 0
6849 1 1 0 30.962993740355245 10.16153156292807 -1.649000552474572 0 0 0
13369 1 2 0 30.96784383281906 10.170134437705457 -2.1856351725456052e-07 0 0 0
6850 1 1 0 25.83320630336194 11.813400894363983 -1.647571662369773 0 0 0
9653 1 2 0 31.410237124508125 11.670090110239133 -2.2073984132284474 0 0 0
9663 1 2 0 32.41869491911735 6.289602414411431 -2.1992714228423913 0 0 0
6855 1 1 0 32.96959461495556 7.753247344529744 -1.6509539607295363 0 0 0
9664 1 2 0 34.52156401470949 7.874366736893677 -2.2477334756596066 0 0 0
9654 1 2 0 32.013712473604066 8.996818511469822 -2.2155182427126587 0 0 0
9669 1 2 0 35.621068350482815 10.242796093953565 -2.0446858268932764 0 0 0
13375 1 2 0 32.96026706151324 7.784940599645188 -7.564621256174326e-07 0 0 0
9672 1 2 0 37.31624777183767 8.247374280183129 -2.3126591198228055 0 0 0
6860 1 1 0 35.846474424278306 8.659141167982524 -1.6387216742968935 0 0 0
6859 1 1 0 36.571204506188906 11.523101910157438 -1.6335509452667076 0 0 0
13380 1 2 0 35.887127028076804 8.416516546082882 -2.473836247432389e-07 0 0 0
13379 1 2 0 36.68029524619859 11.705431313165748 -4.0153042470328545e-07 0 0 0
6872 1 1 0 38.48009043484725 7.3645939033995464 -1.5166035433708651 0 0 0
9686 1 2 0 39.9705492258893 7.317104766924986 -2.255927764309816 0 0 0
9671 1 2 0 38.106881795058634 11.30683065995473 -2.237560624941886 0 0 0
9675 1 2 0 40.84845469824263 11.185137551685859 -2.2943898128307323 0 0 0
13388 1 2 0 41.4614027470234 7.417715269929761 -4.971869748790346e-07 0 0 0
6868 1 1 0 41.51629028233231 7.525560284003943 -1.6451347580989097 0 0 0
9685 1 2 0 42.65020802014446 6.473264675010733 -2.217666768232224 0 0 0
9676 1 2 0 42.13786002184693 8.93227488855221 -2.2099946159709924 0 0 0
6862 1 1 0 42.188021738563634 10.47285367042768 -1.6471437062731957 0 0 0
6864 1 1 0 39.52564984578636 11.923392800765278 -1.6431560326184145 0 0 0
9687 1 2 0 46.588884557840196 6.932206250120711 -2.2138627292743216 0 0 0
9674 1 2 0 43.59625846778609 11.14556080343733 -2.2066111674621784 0 0 0
6863 1 1 0 45.14936858950631 10.923402297923683 -1.647469575072176 0 0 0
9678 1 2 0 45.757050441905854 9.493818453755543 -2.2251513566020438 0 0 0
6869 1 1 0 46.917213572780426 8.452870828442757 -1.6491743290711722 0 0 0
9688 1 2 0 48.37398853624204 8.97651224191425 -2.2446665453226378 0 0 0
13389 1 2 0 46.935908135020235 8.43471080072897 -8.18912193738516e-09 0 0 0
6875 1 1 0 49.81342672133214 9.519363351751698 -1.6476114398456174 0 0 0
9697 1 2 0 50.96800246385733 8.48687523262568 -2.2103506465081946 0 0 0
9696 1 2 0 50.18706496131757 11.015972503230236 -2.2482694685671265 0 0 0
9702 1 2 0 52.57756653494269 6.404345256829066 -2.2137238042081706 0 0 0
6878 1 1 0 52.42539263328215 7.953704178271557 -1.6472807075643139 0 0 0
9701 1 2 0 53.65311404281659 8.890922849897953 -2.244897388574482 0 0 0
6880 1 1 0 54.66702168562831 10.061630603422248 -1.649471910300296 0 0 0
9703 1 2 0 54.27397074002703 11.552210130880528 -2.234411234709375 0 0 0
13398 1 2 0 52.4623645613777 7.996098606131964 -3.264816040912122e-07 0 0 0
13400 1 2 0 54.63289832100996 10.045341239219884 -6.45068176445567e-07 0 0 0
9715 1 2 0 57.65303986206723 7.698304974478653 -2.1745083889015757 0 0 0
9705 1 2 0 56.17787879474372 9.814149579204553 -2.243411667400948 0 0 0
6886 1 1 0 57.61911393208558 9.285990337568766 -1.6491801130606372 0 0 0
13406 1 2 0 57.70478277660508 9.289850312009573 -3.802964388233327e-07 0 0 0
6892 1 1 0 58.298582023052504 6.247124206584582 -1.646644487715252 0 0 0
9723 1 2 0 59.84991545495062 6.360060382947258 -2.225888310758713 0 0 0
9712 1 2 0 58.75280056586715 10.384132628721588 -2.229949055028778 0 0 0
6885 1 1 0 59.853522072490065 11.49828724301881 -1.6272941924398614 0 0 0
13405 1 2 0 59.6013243571526 11.562978892697547 2.8207045219786264e-07 0 0 0
6891 1 1 0 61.24990969822691 7.020773954316307 -1.6397653285117726 0 0 0
9721 1 2 0 61.77394859154097 8.460227701026064 -2.275146383079268 0 0 0
6890 1 1 0 62.418160566342415 9.848997843777864 -1.6293835907952614 0 0 0
9714 1 2 0 61.3728718682284 11.036352858941706 -2.053787977431671 0 0 0
13410 1 2 0 62.588017828135165 9.65408856718308 -4.1815697000764177e-07 0 0 0
9731 1 2 0 66.09349143748913 7.078052311896249 -2.247096257709006 0 0 0
9722 1 2 0 63.85778200536713 10.371339893226013 -2.259332366652278 0 0 0
9727 1 2 0 66.40986873081316 9.810866201505014 -2.192770126143763 0 0 0
6893 1 1 0 65.30677359421999 10.921291155121603 -1.6482261315840903 0 0 0
13413 1 2 0 65.24965480479487 10.983722242449529 -6.616497790828292e-07 0 0 0
6896 1 1 0 66.99177597029626 8.3579351573317 -1.6499282288656494 0 0 0
9732 1 2 0 68.55023990367172 8.275327819613123 -2.2114953814573513 0 0 0
13416 1 2 0 66.96089654069596 8.32025368381647 -6.687520334666135e-07 0 0 0
9738 1 2 0 71.17415179226316 7.726166738161457 -2.211996972122881 0 0 0
6903 1 1 0 71.69747237059568 6.259283148155159 -1.6496082261093319 0 0 0
6900 1 1 0 70.0274235914822 8.781426397194648 -1.6480503062745073 0 0 0
9737 1 2 0 70.41107260398381 10.280909486347408 -2.234343268719365 0 0 0
13423 1 2 0 71.733013269703 6.255297676613122 -5.14982382123133e-07 0 0 0
6901 1 1 0 71.01013470979522 11.71277311902753 -1.65028746379818 0 0 0
9740 1 2 0 72.56915174952388 11.92654346043478 -2.2202160499368215 0 0 0
13421 1 2 0 71.0238089835883 11.731550492534833 2.4745588478059366e-07 0 0 0
9744 1 2 0 74.49084243862578 10.010845512257868 -2.156979473030259 0 0 0
6905 1 1 0 74.08389113282924 11.538395031287372 -1.6450773169375212 0 0 0
6906 1 1 0 74.77683346360045 6.141962534091144 -1.6494639370045674 0 0 0
9745 1 2 0 75.43583411828033 7.539592565356893 -2.242570878170362 0 0 0
6904 1 1 0 75.74226898758363 9.046548150006997 -1.6462592413627997 0 0 0
9746 1 2 0 77.19929056396685 9.574031752799671 -2.235289575212052 0 0 0
13424 1 2 0 75.80823611908667 9.02087102243303 -3.436658601496535e-07 0 0 0
13425 1 2 0 74.04892036461332 11.630315065806085 -9.988893981653502e-08 0 0 0
6909 1 1 0 78.73607996460008 9.80278254955101 -1.6487587688643839 0 0 0
9753 1 2 0 79.66977858099143 8.547871890268866 -2.215236751076129 0 0 0
9752 1 2 0 79.27413570963921 11.287583826603083 -2.185853476557421 0 0 0
6912 1 1 0 80.78001811617142 7.440632942237204 -1.6480769132980622 0 0 0
9758 1 2 0 82.24979365517787 8.009949648452093 -2.1891661640293796 0 0 0
6918 1 1 0 83.74068106330857 8.534583581216406 -1.6490021588329304 0 0 0
9767 1 2 0 84.06376808655551 10.127794413866452 -2.1607975588529356 0 0 0
13438 1 2 0 83.80022208685784 8.56666230752346 -1.0799468985676172e-06 0 0 0
6919 1 1 0 84.41946419792812 11.72037075411717 -1.650431622132141 0 0 0
9768 1 2 0 84.74621617983807 7.296852950608772 -2.199617779365448 0 0 0
9777 1 2 0 87.28932462855514 7.019644133609388 -2.199289360712983 0 0 0
6927 1 1 0 88.83217102728376 7.041679653177871 -1.646957113919981 0 0 0
9780 1 2 0 89.46389315879259 8.428773455161569 -2.2515307253075254 0 0 0
6925 1 1 0 89.60811149986866 9.953750691992793 -1.6494356176434852 0 0 0
9779 1 2 0 88.35271149023194 10.881964049326236 -2.2054685260484774 0 0 0
13447 1 2 0 88.87031226050003 7.01587065867331 -1.060412453343018e-07 0 0 0
6924 1 1 0 85.93891931216208 6.258259261792043 -1.6418179519623488 0 1 0
13445 1 2 0 89.59842246614139 9.980338865308768 2.801947415697445e-07 0 0 0
13444 1 2 0 85.80145764343867 6.182934366174638 -1.3388382019426085e-06 0 1 0
9781 1 2 0 91.06905290733172 10.431397755612792 -2.2477698551152074 0 0 0
6934 1 1 0 94.60877797603199 8.264702340495052 -1.646884749494686 0 0 0
9794 1 2 0 94.0013871966315 6.8705155227023855 -2.250499599539409 0 0 0
9795 1 2 0 96.1583106626082 8.171087780353675 -2.200297727564761 0 0 0
6931 1 1 0 92.60032242561776 10.597265492478956 -1.644222121676086 0 0 0
9790 1 2 0 93.69366610634549 9.511238953549928 -2.254421106800114 0 0 0
13451 1 2 0 92.56635262054957 10.490344568053928 -1.5571943946226648e-07 0 0 0
6942 1 1 0 99.72834919313821 6.718240378255365 -1.6498291813665165 0 0 0
9803 1 2 0 98.89830808396484 8.026913631962035 -2.2338459388890812 0 0 0
9204 1 2 0 101.29303519880617 6.704545195627842 -2.2089656570617393 0 0 0
6939 1 1 0 97.57018160352442 8.8119712163186 -1.6464947136581096 0 0 0
9802 1 2 0 97.54270899598451 10.313883321943246 -2.2839699167501775 0 0 0
13459 1 2 0 97.61007260832427 8.814156907313386 -3.28155183862297e-07 0 0 0
13462 1 2 0 99.73553726783162 6.707907865878475 -4.0976906545682694e-07 0 0 0
9202 1 2 0 102.02259718302099 11.771908514274212 -2.225754331825724 0 0 0
6940 1 1 0 97.75109486269794 11.807963978614582 -1.6496156248873743 0 0 0
6658 1 1 0 11.536640047232343 14.996985444385329 -1.6475744137598096 0 0 0
9360 1 2 0 11.414877397179225 13.458610400537324 -2.248608148916559 0 0 0
6657 1 1 0 8.992521581919561 16.664166574860285 -1.6453134558343674 0 0 0
9364 1 2 0 10.374031030110816 16.000698961909134 -2.2605031498989616 0 0 0
9366 1 2 0 12.948598101381359 15.655367093583331 -2.1914474423969246 0 0 0
13178 1 2 0 11.48118650913381 14.938052895913003 -4.884035147054195e-07 0 0 0
13177 1 2 0 9.082657199860096 16.68720100919333 -5.452335739101558e-07 0 0 0
6714 1 1 0 13.884148968777057 16.90368875352483 -1.647726605091122 0 0 0
13234 1 2 0 13.881535369663887 16.94790538880984 -5.498255770640199e-07 0 0 0
6840 1 1 0 17.70894482967135 13.121841693297513 -1.6447053136740524 0 0 0
9637 1 2 0 17.131964074834734 14.554211582298803 -2.2465132710806532 0 0 0
6841 1 1 0 16.80767099672893 16.06796076155473 -1.6497424232689943 0 0 0
9452 1 2 0 15.364242104424717 16.5567153839942 -2.2648346945061464 0 0 0
13360 1 2 0 17.64341639899114 13.170291322367211 -7.198936784465356e-07 0 0 0
13361 1 2 0 16.821146426966138 16.04229749535703 -9.743750161374054e-08 0 0 0
9638 1 2 0 19.256352977126912 12.836803147869514 -2.160705319346698 0 0 0
9639 1 2 0 17.869038742356725 17.18756757527325 -2.230123620213839 0 0 0
9646 1 2 0 21.89272671971637 12.529518572083546 -2.241613667939908 0 0 0
6847 1 1 0 20.682376118662226 13.496620093690712 -1.6448929910461256 0 0 0
9649 1 2 0 20.682298551325633 15.055197425315066 -2.220456214798301 0 0 0
6947 1 1 0 21.254865758195585 16.509382699353793 -1.648965113590847 0 0 0
9813 1 2 0 22.800096488449753 16.544114483309574 -2.2275941279874703 0 0 0
6949 1 1 0 24.265335403394626 17.038553232563377 -1.6476101869220081 0 0 0
13367 1 2 0 20.787909660694698 13.52417526442022 -1.6397661417483943e-06 0 0 0
9659 1 2 0 25.442781798908687 16.014782136513016 -2.2304069972932523 0 0 0
9812 1 2 0 20.390147629928382 17.845029382281034 -2.172430052675402 0 0 0
9655 1 2 0 26.12527514160929 13.340160262225705 -2.220752689947219 0 0 0
6852 1 1 0 26.492010368167524 14.85148088037183 -1.6489408072932528 0 0 0
9658 1 2 0 28.011417264430293 15.137731208788994 -2.2285192829691662 0 0 0
6853 1 1 0 29.530099736138567 15.429499486771576 -1.6489554697979136 0 0 0
9660 1 2 0 29.85272901194118 16.948749959339526 -2.2282457746212847 0 0 0
13372 1 2 0 26.454878114955182 14.875775987470396 -5.888880520206358e-07 0 0 0
9656 1 2 0 30.593348038750307 14.27935747778821 -2.2153422475814106 0 0 0
6851 1 1 0 31.74176352060876 13.208979682894867 -1.649253779856753 0 0 0
9657 1 2 0 33.23010802832086 13.712336866819328 -2.2074909722735945 0 0 0
6861 1 1 0 34.782466561932964 13.957079309380772 -1.6512568811967243 0 0 0
9673 1 2 0 35.48751345634256 15.343088746373924 -2.213419324354867 0 0 0
13371 1 2 0 31.727525345651845 13.198816815148259 -5.991887827850043e-08 0 0 0
9670 1 2 0 35.78874591809962 12.810834346545915 -2.2885815409193526 0 0 0
6951 1 1 0 35.94548033287447 16.829218026278333 -1.6487801870809249 0 0 0
9817 1 2 0 34.80094192788816 17.82977551762459 -2.2779214642715786 0 0 0
9818 1 2 0 37.408056275256925 17.381330075743946 -2.219318923227136 0 0 0
9679 1 2 0 39.58703604160236 13.479053845332588 -2.173089336780758 0 0 0
6866 1 1 0 40.46637634041242 14.75808643144223 -1.6440864347661963 0 0 0
9683 1 2 0 39.656474717569665 16.02615634279841 -2.281623627066118 0 0 0
9682 1 2 0 42.010704752091556 14.701855694608271 -2.2291642490640924 0 0 0
6954 1 1 0 38.96974693642843 17.378391587871743 -1.6483858165738334 0 0 0
9677 1 2 0 46.094554166332415 12.192008711643355 -2.1693234170254656 0 0 0
9680 1 2 0 44.607375575046746 14.39919136183424 -2.273210457750742 0 0 0
6867 1 1 0 43.41731159776787 15.34627705783826 -1.6475547143047504 0 0 0
6865 1 1 0 45.99729598326227 13.77184346401962 -1.6488909699195573 0 0 0
9684 1 2 0 43.597114770448144 16.882257911662325 -2.2123873221365007 0 0 0
13387 1 2 0 43.44491023310621 15.355977412029834 -3.8519093560812887e-07 0 0 0
13385 1 2 0 45.98965766420929 13.802262297338165 -6.255884512235331e-07 0 0 0
9681 1 2 0 47.224049258812855 14.741313987094237 -2.2058796445210525 0 0 0
6877 1 1 0 48.78270267452896 14.877634043837904 -1.6474204173170117 0 0 0
13397 1 2 0 48.79118878164421 14.928915095984031 -9.981958614608458e-07 0 0 0
6876 1 1 0 50.63884294183607 12.48647220292958 -1.6482131572103895 0 0 0
9699 1 2 0 52.09693436512587 13.023044605816644 -2.2120568010139103 0 0 0
9698 1 2 0 49.54342077774228 13.551272726361894 -2.2478355626703754 0 0 0
9700 1 2 0 49.57060754358462 16.21275871050934 -2.2197134515817023 0 0 0
13396 1 2 0 50.64787897225071 12.440383930646329 -2.641804045738937e-07 0 0 0
6879 1 1 0 53.64994769257622 12.959921500879979 -1.646968495118189 0 0 0
9704 1 2 0 54.53665883037506 14.229820325271694 -2.2332800312679892 0 0 0
9719 1 2 0 53.82303512848228 16.78562098180686 -2.180989025326959 0 0 0
6888 1 1 0 54.991186074406976 15.719819130728956 -1.649632674628102 0 0 0
13399 1 2 0 53.67348149538525 12.987769323428449 6.8494559444670646e-09 0 0 0
13408 1 2 0 55.01814983496104 15.740190532745967 -3.451203371991142e-07 0 0 0
6957 1 1 0 49.87888572426274 17.74425344270502 -1.6494866747498298 0 0 0
9718 1 2 0 56.528591014618534 16.048777011051552 -2.2186750265862485 0 0 0
9713 1 2 0 59.876258234660405 13.054930628834475 -2.223548470864357 0 0 0
6887 1 1 0 60.47210720185695 14.514318009144672 -1.6523126134278558 0 0 0
6889 1 1 0 58.04591795229476 16.468976918927357 -1.6456726204746694 0 0 0
9716 1 2 0 59.286017341173284 15.53375239286484 -2.217722514938192 0 0 0
13409 1 2 0 57.98378464058156 16.412574228700226 -8.369689638867172e-07 0 0 0
9717 1 2 0 62.01168274165313 14.984964100094627 -2.1761415932152963 0 0 0
6895 1 1 0 63.436053417997584 15.738832171560254 -1.6492275666446954 0 0 0
9726 1 2 0 65.74411993667657 12.429148382672421 -2.2066505334601136 0 0 0
9728 1 2 0 64.85478295688212 14.970993387382991 -2.169047823527701 0 0 0
6894 1 1 0 66.11844905393917 13.968055542094213 -1.650141688828025 0 0 0
9730 1 2 0 63.42572295030656 17.337217356011553 -2.1782726924234233 0 0 0
9729 1 2 0 67.68588188913111 14.391860346544878 -2.168850628406423 0 0 0
9739 1 2 0 69.97900177314268 12.891144466268495 -2.204468104414031 0 0 0
6902 1 1 0 69.30768160478863 14.313732905447672 -1.6477385201416637 0 0 0
9741 1 2 0 70.40406002380881 15.486177828444132 -2.1651634961924464 0 0 0
6966 1 1 0 71.43574172006018 16.721582422628156 -1.6487533805336365 0 0 0
9841 1 2 0 73.07729914773817 16.66757894740141 -2.163084317554752 0 0 0
9747 1 2 0 75.29361933008704 12.513665890986479 -2.2229060058803873 0 0 0
6911 1 1 0 76.22307635503823 13.766135758635228 -1.6481259154102599 0 0 0
9756 1 2 0 75.3794122268592 15.091880664155546 -2.1951913251745396 0 0 0
9754 1 2 0 77.81074310076231 13.607593412822837 -2.188241518566474 0 0 0
6972 1 1 0 74.71590883272368 16.52063406051973 -1.6480624087494125 0 0 0
13431 1 2 0 76.27293881932059 13.791142111376246 -6.1465696300454974e-09 0 0 0
9850 1 2 0 75.91474690240803 17.58602849456418 -2.183674815601984 0 0 0
6910 1 1 0 79.23573019265878 12.873295335968384 -1.6488645292440887 0 0 0
9769 1 2 0 83.31579730313629 12.917068349687586 -2.1510872474573794 0 0 0
9755 1 2 0 80.63635451714353 13.633052416994683 -2.1865327134889165 0 0 0
6920 1 1 0 82.17421225151121 14.090199915833313 -1.649246942584689 0 0 0
9771 1 2 0 82.46353929710185 15.692323340698549 -2.14771310023582 0 0 0
6980 1 1 0 82.75683650585528 17.305351904181222 -1.6492993550373318 0 0 0
9863 1 2 0 84.36840969685888 17.645930548676983 -2.12603833029261 0 0 0
9770 1 2 0 85.96803748337608 12.160938264295872 -2.1855135375574117 0 0 0
6926 1 1 0 87.5617869296415 12.238657249744145 -1.6474761511204743 0 0 0
9782 1 2 0 88.49590721403915 13.53423725411366 -2.1790939626542976 0 0 0
6933 1 1 0 89.7212701438352 14.555809536500059 -1.6490871168197754 0 0 0
9793 1 2 0 89.30768958064508 16.074821140895974 -2.1857950121453333 0 0 0
13453 1 2 0 89.77748497717042 14.50351681813351 -1.164374215354041e-07 0 0 0
13446 1 2 0 87.51912286384058 12.284587821295654 -1.9513293907459427e-07 0 0 0
6981 1 1 0 89.0256257755113 17.63055955031004 -1.6469768690854982 0 0 0
13501 1 2 0 89.00373345644087 17.734905962999697 -1.525976629504067e-07 0 0 0
9791 1 2 0 91.27283728809469 14.188760110083468 -2.2197561071472496 0 0 0
9789 1 2 0 93.05863430376706 12.090469532207145 -2.1644239850520224 0 0 0
6932 1 1 0 92.75273789381549 13.63382996146296 -1.6448051006440634 0 0 0
9792 1 2 0 94.1651040418234 14.386392663541363 -2.1858278479426865 0 0 0
6941 1 1 0 95.72273616659847 14.046034822375056 -1.646962355837692 0 0 0
13461 1 2 0 95.65714785823698 14.053812036842556 -2.6566679565931207e-07 0 0 0
9455 1 2 0 96.31450659070323 17.642633300500194 -2.1548457107516397 0 0 0
9804 1 2 0 96.40468899214859 12.625488991957672 -2.192979430484851 0 0 0
9456 1 2 0 96.85003741591807 15.134069633299028 -2.1778464720752693 0 0 0
9376 1 2 0 99.25529209373876 12.19088225063227 -2.2245246664733425 0 0 0
6664 1 1 0 100.7311899830006 12.673485693340837 -1.648654131991437 0 0 0
9374 1 2 0 100.7966813154117 14.223225228883525 -2.2126947962468906 0 0 0
6663 1 1 0 100.60799970345869 15.773609374203874 -1.6479496675514727 0 0 0
6716 1 1 0 97.51064178055431 16.55328313493337 -1.6393120295038466 0 0 0
9375 1 2 0 99.1452871602748 16.495469860667942 -2.1714846621907733 0 0 0
9372 1 2 0 102.1062326979223 16.383091078173024 -2.151455474016423 0 0 0
13236 1 2 0 97.61520202729226 16.720385988723137 -4.258858121078707e-07 0 0 0
13184 1 2 0 100.76898615423477 12.633877671020677 -5.275316520316742e-07 0 0 0
13183 1 2 0 100.54395651478742 15.842206405416412 -6.067880075042648e-07 0 0 0
9365 1 2 0 8.68295017072334 18.215160620145475 -2.1771319159887774 0 0 0
6702 1 1 0 9.472863721254555 19.587338512740992 -1.6480381864041984 0 0 0
9435 1 2 0 10.999623233392986 19.4020819770829 -2.2332273159328926 0 0 0
9450 1 2 0 13.451808800326182 18.39720433118938 -2.228601903597762 0 0 0
6713 1 1 0 12.518338504779305 19.633991786734512 -1.6471350436629673 0 0 0
9434 1 2 0 8.87808701874969 21.029165574691763 -2.223048834031335 0 0 0
9451 1 2 0 13.01027035928063 21.08431371055437 -2.2571296217559333 0 0 0
6761 1 1 0 13.292634324096868 22.59179081368887 -1.649026080667345 0 0 0
13281 1 2 0 13.248174866378466 22.61038406778237 -3.0987974141685465e-07 0 0 0
9523 1 2 0 12.203992369443233 23.70068696112135 -2.238262490105224 0 0 0
6948 1 1 0 18.876026208311718 18.359898891302983 -1.6475103909687916 0 0 0
9814 1 2 0 18.32386894900581 19.84522545530369 -2.1901993696800632 0 0 0
7016 1 1 0 18.49108445126162 21.433579822743546 -1.6487272290589259 0 0 0
9917 1 2 0 17.424034600937706 22.614772610675743 -2.2036884494437388 0 0 0
9525 1 2 0 14.809184439781202 22.902524886807445 -2.206949379918388 0 0 0
7017 1 1 0 16.182796277915962 23.61921772636875 -1.6445935067566069 0 0 0
9815 1 2 0 24.40796804304636 18.594804412743 -2.216703245219277 0 0 0
6987 1 1 0 23.945573554473775 20.08396709643348 -1.64816653612666 0 0 0
9918 1 2 0 19.99055592196652 21.828961334140512 -2.2276290734738087 0 0 0
7018 1 1 0 21.53155109818515 21.911132696916003 -1.6482458012806014 0 0 0
9874 1 2 0 22.4579074956065 20.628682353340253 -2.1845329537377296 0 0 0
13538 1 2 0 21.532245412388697 21.909927131140066 -1.547542937714186e-06 0 0 0
13507 1 2 0 23.934150753580525 20.051331331486317 -1.7060742077146255e-07 0 0 0
9873 1 2 0 25.07142474980305 21.1284680311369 -2.2421101988483763 0 0 0
9920 1 2 0 22.08945630101161 23.351126953489523 -2.240007916634313 0 0 0
9820 1 2 0 29.850310969119377 19.685671625901875 -2.2299259527604804 0 0 0
6989 1 1 0 26.33297857026702 21.999945840687953 -1.648753323245486 0 0 0
9875 1 2 0 27.71328614198333 21.308998798454194 -2.2348651782453954 0 0 0
6988 1 1 0 29.24791927315984 21.123581665338673 -1.651233265375142 0 0 0
9876 1 2 0 30.063361750745226 22.450040006048134 -2.23793615925782 0 0 0
6952 1 1 0 30.58407978492174 18.310757553702967 -1.6472722902862718 0 0 0
9877 1 2 0 26.148529786731338 23.534498034763345 -2.23827956233092 0 0 0
7022 1 1 0 31.35795030385153 23.285761524798744 -1.6455592308499385 0 0 0
9819 1 2 0 32.13399387262995 18.182725583203545 -2.2070830337038077 0 0 0
6953 1 1 0 33.58520443843424 18.728704028781262 -1.64693342104434 0 0 0
9821 1 2 0 33.82301060757548 20.225118390265166 -2.258224251873572 0 0 0
9924 1 2 0 32.717378669580825 22.59299165556134 -2.253614593015599 0 0 0
7021 1 1 0 33.97416961394821 21.73610770299475 -1.6468254562848055 0 0 0
9925 1 2 0 35.34612773618226 22.350503198256497 -2.283370389182499 0 0 0
13473 1 2 0 33.60692148143416 18.696706763355166 -2.5218563920346604e-07 0 0 0
13541 1 2 0 33.98496341279758 21.747451489898225 -7.883180448121647e-08 0 0 0
7026 1 1 0 36.73362900295059 22.974141488506216 -1.6632317361748519 0 0 0
9822 1 2 0 39.95094790296275 18.584075118015434 -2.2271874962639946 0 0 0
6992 1 1 0 41.161700034550584 19.56698236534689 -1.6390835984452754 0 0 0
9930 1 2 0 37.89925663914605 21.961868792433542 -2.3033486503508214 0 0 0
9881 1 2 0 40.636546342182676 21.066540930907856 -2.170371519955836 0 0 0
7025 1 1 0 39.36010202047136 21.908457122444048 -1.512346248622126 0 0 0
13545 1 2 0 39.115239167555174 21.25864240064605 -5.656237778459164e-08 0 0 0
9829 1 2 0 42.73392997612727 19.34668684829931 -2.1938681142645304 0 0 0
9931 1 2 0 39.66709241663155 23.529123891285128 -1.451506742383068 0 0 0
9938 1 2 0 42.11670118401822 23.438566000823876 -2.365758937838317 0 0 0
6958 1 1 0 44.009319217891516 18.38091900853794 -1.6469523637564185 0 0 0
9828 1 2 0 45.58510661183293 18.624533851737553 -2.1878103017873367 0 0 0
9934 1 2 0 44.42209548836944 21.70781560826741 -2.1886984807295575 0 0 0
7027 1 1 0 46.020473183880036 21.90903979443981 -1.6561823823097692 0 0 0
13478 1 2 0 44.07339108580262 18.47703416597201 -2.7780736451172303e-07 0 0 0
6959 1 1 0 47.07066435566844 19.209727123807287 -1.6476325863110473 0 0 0
9826 1 2 0 48.53114434392255 18.602141947901924 -2.197531026097872 0 0 0
9830 1 2 0 47.06886843808277 20.78072748070782 -2.2156723296072487 0 0 0
7029 1 1 0 43.370140327577396 22.8117399266492 -1.472021502395486 0 0 0
9939 1 2 0 46.59680780275276 23.3844526324064 -2.176649626854897 0 0 0
13551 1 2 0 48.68750369987313 23.66294883405078 -3.476643558111699e-07 0 0 0
9827 1 2 0 51.42767696320231 18.182108394177863 -2.1880777997255665 0 0 0
6962 1 1 0 53.0356036882832 18.15774631921318 -1.6478745495766995 0 0 0
9834 1 2 0 54.009499806484946 19.42229046724045 -2.1891592362561814 0 0 0
9945 1 2 0 55.097389465362895 21.888079107233363 -2.1696044362001228 0 0 0
13482 1 2 0 52.96937465367797 18.194584546891896 -9.850636625944475e-07 0 0 0
9933 1 2 0 50.08212379388867 22.780612354728888 -2.251260220693769 0 0 0
7028 1 1 0 51.52054790459305 23.351192795030254 -1.5010317193480625 0 0 0
9936 1 2 0 52.94979519925327 23.38889159480886 -2.3098712095331497 0 0 0
7035 1 1 0 54.4895297708286 23.32004677296788 -1.6452856672996694 0 0 0
7034 1 1 0 55.31060865622834 20.334719927318922 -1.6441638315094964 0 0 0
9889 1 2 0 56.841591575388065 19.994332723982538 -2.2183503111412306 0 0 0
13554 1 2 0 55.31574486957136 20.22433040539688 -2.1022617490645775e-07 0 0 0
6997 1 1 0 58.34410524851413 19.525728308485633 -1.6447770774156794 0 0 0
9720 1 2 0 58.48681384642002 17.970325283762172 -2.1827224207190574 0 0 0
9888 1 2 0 59.68647613763769 20.370629435861943 -2.19498930121154 0 0 0
13517 1 2 0 58.329573517521524 19.64282998454949 1.2287156671703046e-08 0 0 0
9843 1 2 0 62.45857849338894 19.96139308425559 -2.173871785313851 0 0 0
6998 1 1 0 61.177998602238425 20.942386537835954 -1.651245431691387 0 0 0
9890 1 2 0 61.33115599371186 22.537359943594694 -2.188059757417072 0 0 0
6967 1 1 0 63.682439986195504 18.91136425809751 -1.6489580509861328 0 0 0
9842 1 2 0 65.21688636429488 19.360592829143503 -2.1843745982451717 0 0 0
6969 1 1 0 66.62317879392418 20.107636317766012 -1.6500325378289757 0 0 0
9846 1 2 0 66.56017832106562 21.669762798928858 -2.2355677970835464 0 0 0
13487 1 2 0 63.66895896143433 18.945106412430953 -3.188058986803706e-07 0 0 0
13489 1 2 0 66.6204452818174 20.089819801949368 9.216275764873526e-07 0 0 0
7038 1 1 0 66.43671699423068 23.212144265055546 -1.6462811167280025 0 0 0
13558 1 2 0 66.46387661640823 23.146702414644157 -1.3410859794415938e-07 0 0 0
9844 1 2 0 68.07168562532601 19.408539741437295 -2.171282334615573 0 0 0
6968 1 1 0 69.68315199242133 19.36312785989301 -1.648981645710769 0 0 0
9840 1 2 0 70.60709255276963 18.077766367481505 -2.189964396273221 0 0 0
9845 1 2 0 70.51692389887678 20.682897279894675 -2.223274650519023 0 0 0
7002 1 1 0 71.09877799211986 22.12162486459958 -1.6462882852659617 0 0 0
9896 1 2 0 72.61045665340313 22.464019621532707 -2.2221610879057843 0 0 0
13522 1 2 0 71.09136819677543 22.086821858530325 -1.231271984055446e-07 0 0 0
13488 1 2 0 69.64570990285566 19.337775464823366 -3.771011576955034e-07 0 0 0
9897 1 2 0 70.13285168009081 23.308206841967547 -2.2515779605806268 0 0 0
7001 1 1 0 77.12246313677691 18.634342910361077 -1.6437162608730267 0 0 0
9894 1 2 0 76.50676696149681 20.04948199653462 -2.2283730672681905 0 0 0
9898 1 2 0 75.18143766283885 22.26949770529392 -2.2752388791279277 0 0 0
7003 1 1 0 76.5234698117035 21.582749031415073 -1.6466208245761977 0 0 0
9899 1 2 0 77.82481418581587 22.422379961778063 -2.201234571595165 0 0 0
13521 1 2 0 77.14974775366859 18.495470056429586 -3.416449161620291e-08 0 0 0
7004 1 1 0 73.98342433422413 23.20434290616123 -1.6585439793392798 0 0 0
9895 1 2 0 78.75595720543927 18.625625481208644 -2.1261726342683653 0 0 0
7042 1 1 0 79.37039913865351 22.601583815040645 -1.6368387190035243 0 0 0
9901 1 2 0 80.15349653011785 21.104285532068914 -2.097067320312767 0 0 0
7005 1 1 0 80.1933594709667 19.424425422558713 -1.648073089863667 0 0 0
9864 1 2 0 81.54153583493802 18.444250826903207 -2.1431896255914475 0 0 0
9909 1 2 0 84.51020707308368 22.510329898288077 -2.229744341868231 0 0 0
13525 1 2 0 80.26859903186406 19.42170915362167 1.184240747224859e-08 0 0 0
9867 1 2 0 85.53582913273968 19.963285605446085 -2.242995292906566 0 0 0
9865 1 2 0 87.4157181293063 18.0081086880345 -2.1412311096033005 0 0 0
6982 1 1 0 85.81603369073773 18.4288028741046 -1.648333119359968 0 0 0
9866 1 2 0 90.42093886781855 18.503045673623976 -2.145712691857966 0 0 0
7010 1 1 0 85.70748507299471 21.4917964067245 -1.6532538024177086 0 0 0
9908 1 2 0 87.12545522217314 22.09545417992705 -2.2380163931690227 0 0 0
9910 1 2 0 89.68899660274406 22.16689010323997 -2.196956323751702 0 0 0
13502 1 2 0 85.85820594540752 18.343118093176493 -2.0184520463554618e-07 0 0 0
7012 1 1 0 88.37782058092697 22.989156104141642 -1.6521606796320005 0 0 0
7009 1 1 0 91.90210161364128 19.21832335984504 -1.6510387443764818 0 0 0
9458 1 2 0 93.39674228617598 18.535809288465305 -2.1548288728514704 0 0 0
6717 1 1 0 95.02712215904943 18.629727421651403 -1.643694880699765 0 0 0
9457 1 2 0 95.56873015715088 20.106391916095394 -2.197364962005254 0 0 0