LAMMPS data file via write_data, version 2 Aug 2023, timestep = 149, units = metal

15252 atoms
2 atom types

7.710251419771098 194.82232016617587 xlo xhi
6.007519671682281 169.123325394504 ylo yhi
-100 100 zlo zhi

Masses

1 28.085
2 15.999

Atoms # full

9097 1 2 0 8.018607318595723 8.154795642274296 -2.236286511016012 0 0 0
9109 1 2 0 11.924635998734711 7.349317284060137 -2.208598044688403 0 0 0
6473 1 1 0 8.790321722866373 9.487387120731787 -1.648395832487242 0 0 0
6479 1 1 0 11.782669387218435 8.913136443782236 -1.6501730800974235 0 0 0
9100 1 2 0 10.34057369786449 9.493874441924467 -2.2185577414425994 0 0 0
9110 1 2 0 12.958201785224858 9.947066078641528 -2.2220094653742897 0 0 0
9099 1 2 0 7.9997977738240555 10.807834709205995 -2.240416997160386 0 0 0
9112 1 2 0 14.261259336023686 6.213639045628524 -2.1800350720243427 0 1 0
9601 1 2 0 16.895264234763093 6.841619372343651 -2.224974838782594 0 0 0
6798 1 1 0 17.724526779169903 8.177650667874502 -1.651336586585115 0 0 0
9600 1 2 0 17.044189389203915 9.571703857906215 -2.2176210363330306 0 0 0
6499 1 1 0 13.69200384825149 11.32721441841567 -1.6491192355902848 0 0 0
6799 1 1 0 16.739015437126884 11.096364365415035 -1.6498272216938814 0 0 0
9141 1 2 0 15.232749796307417 11.43681124915339 -2.231000080745884 0 0 0
9602 1 2 0 19.27930874231862 8.294491542388453 -2.2376194516687593 0 0 0
6802 1 1 0 20.694062454439457 7.683103283660788 -1.6514828335193226 0 0 0
9607 1 2 0 20.65954913648744 6.108490925200438 -2.203639689838081 0 0 0
9606 1 2 0 22.089854224451418 8.351350341612932 -2.243972050048012 0 0 0
6803 1 1 0 23.570641055295628 8.834728200189641 -1.6474234871675397 0 0 0
9608 1 2 0 23.59442523110946 10.38983641510232 -2.179085274211928 0 0 0
6804 1 1 0 24.20346861619334 11.810213522385585 -1.645963840103488 0 0 0
13157 1 2 0 20.704249814905328 7.790989956623609 -1.6683434787252415e-07 0 0 0
13158 1 2 0 23.57031287773852 8.673965478009125 -5.840115403587919e-07 0 0 0
9609 1 2 0 24.999657001788062 8.200758618767392 -2.2583028839876635 0 0 0
6814 1 1 0 26.187267951560198 7.21809243704081 -1.6482213363518017 0 0 0
9628 1 2 0 27.778094220792635 7.354620921242113 -2.1586259073647893 0 0 0
6825 1 1 0 28.79671821783004 6.123184808536666 -1.653516440208892 0 0 0
13180 1 2 0 28.853813127406664 6.162643801481687 -1.9635728721330076e-07 0 0 0
13169 1 2 0 26.126133559845485 7.35233582911367 -3.933070388802486e-08 0 0 0
9643 1 2 0 30.31137502649101 6.284813717829471 -2.2794522436701623 0 0 0
9641 1 2 0 31.01683788673665 10.915755724402693 -2.265264702855547 0 0 0
6823 1 1 0 31.740553700536665 6.80417733021144 -1.6520950264928618 0 0 0
6822 1 1 0 32.12561533473319 9.843134548962924 -1.6462152332061974 0 0 0
9640 1 2 0 31.741551213987794 8.350086925136766 -2.2021728135582896 0 0 0
9642 1 2 0 33.6522224692914 10.02609634023639 -2.237569737614307 0 0 0
6830 1 1 0 35.15586715306722 10.373940656666823 -1.6488463354521752 0 0 0
13178 1 2 0 31.770201706993316 6.707457423441595 1.8868704257601252e-07 0 0 0
13177 1 2 0 32.126300134595304 9.943480183252442 1.2568774205418925e-06 0 0 0
9651 1 2 0 36.23381216317539 9.233777970850154 -2.2494592759837237 0 0 0
13185 1 2 0 35.22967650445377 10.328096003641543 -9.445551805938235e-07 0 0 0
9652 1 2 0 37.54109180191686 6.63626249719736 -2.1778307171939835 0 0 0
6828 1 1 0 37.44528420335179 8.237772397028062 -1.6361318246867063 0 0 0
9650 1 2 0 38.85794371026211 8.923386670688297 -2.1503083475224862 0 0 0
6829 1 1 0 40.430899211951996 8.961660014131686 -1.6439950218977202 0 0 0
13183 1 2 0 37.23498345193539 8.237071976396262 -1.6861377031215741e-06 0 0 0
13184 1 2 0 40.515624682622786 8.97685813026906 -2.786526169350614e-06 0 0 0
9654 1 2 0 41.263825768632515 7.643472583703659 -2.2487248424746 0 0 0
6836 1 1 0 42.39741487418491 6.579397486790218 -1.6266124321411808 0 0 0
9653 1 2 0 40.97337449862318 10.405795790692485 -2.2484502858836026 0 0 0
13191 1 2 0 42.399125003727924 6.835373364806685 -1.2404988122131769e-07 0 0 0
9666 1 2 0 43.85343993161781 6.955792816189772 -2.2968496981758104 0 0 0
6842 1 1 0 45.37090082714169 6.860158546772357 -1.6532488043013236 0 0 0
9672 1 2 0 46.02941664837543 8.270889563757786 -2.2128905235431353 0 0 0
6840 1 1 0 46.207929243850955 9.816477776701994 -1.6461544421083423 0 0 0
9671 1 2 0 45.12950276976814 10.947703314701675 -2.231871552955231 0 0 0
13195 1 2 0 46.113359716107226 9.829081879500116 1.0237780393550217e-06 0 0 0
13197 1 2 0 45.371161836657755 6.804622398915193 5.954494880905188e-07 0 0 0
9673 1 2 0 47.71650552863027 10.194344517504561 -2.2001765140567753 0 0 0
6851 1 1 0 50.92895765616528 7.313998061051714 -1.6508066479665575 0 0 0
6847 1 1 0 49.25191828740549 9.937286684289797 -1.648112062728138 0 0 0
9683 1 2 0 49.93551437088156 8.52987741351821 -2.2253785437353675 0 0 0
9682 1 2 0 50.029128761678486 11.281461238981965 -2.2254454384718345 0 0 0
13206 1 2 0 50.91189562936964 7.309833950581839 -4.854608029724507e-07 0 0 0
9690 1 2 0 52.458343987806686 7.612466847399751 -2.22076759805173 0 0 0
6857 1 1 0 53.9969391874964 7.839060515628086 -1.6497834859919893 0 0 0
13212 1 2 0 54.00471727073803 7.849308454764444 -3.8017260861348255e-06 0 0 0
9700 1 2 0 54.95624649434197 6.616637648155559 -2.229569346027158 0 0 0
9697 1 2 0 54.56703998685773 9.285166516053051 -2.2342570541946762 0 0 0
6856 1 1 0 55.04640826770807 10.760251578201261 -1.649441009544267 0 0 0
9699 1 2 0 56.548936185127495 11.118376513470805 -2.233942308452339 0 0 0
6867 1 1 0 58.85022676514847 6.11948635347891 -1.6501613269728166 0 0 0
9707 1 2 0 58.94886800815039 7.67989672075459 -2.211988063316482 0 0 0
9705 1 2 0 59.09278137484115 10.429446662949667 -2.229967555661877 0 0 0
6861 1 1 0 59.74367134107784 9.021235066503708 -1.649042209749358 0 0 0
6862 1 1 0 58.028732216529136 11.566431340874354 -1.6507320377143344 0 0 0
13217 1 2 0 58.03599855171472 11.582528623338211 -9.750868182295701e-08 0 0 0
9706 1 2 0 61.28791967087925 8.89586328880912 -2.223508339112781 0 0 0
6863 1 1 0 62.71591739246964 9.480718183727777 -1.649076638088212 0 0 0
6869 1 1 0 64.96380070442885 7.409532963122421 -1.6509997772653195 0 0 0
9710 1 2 0 63.91844945997732 8.533099705023476 -2.2555331405383114 0 0 0
9709 1 2 0 62.880545385713866 11.01847841528268 -2.234692442586802 0 0 0
9720 1 2 0 66.45168399587635 7.741963091157008 -2.2729649083224195 0 0 0
6887 1 1 0 67.83596359489299 8.363110098758026 -1.645220935486973 0 0 0
9749 1 2 0 67.96267576720372 9.906829397362362 -2.1951664414478884 0 0 0
9751 1 2 0 69.10915517077915 7.542268513656765 -2.2706276809318995 0 0 0
6888 1 1 0 70.39889734812748 6.732131261196108 -1.653811996343626 0 0 0
9743 1 2 0 71.73513595254659 7.538335550999606 -2.2470485791698254 0 0 0
6886 1 1 0 68.83350085006019 11.18915685518847 -1.645997457694721 0 0 0
9736 1 2 0 70.35423120920339 11.174970505723175 -2.2872215589923157 0 0 0
6878 1 1 0 71.78537751611819 11.675646860922686 -1.6457060893035682 0 0 0
13243 1 2 0 70.43218957785635 6.714337474277564 2.6886066280949726e-06 0 0 0
6882 1 1 0 73.28487511166449 7.563048708326241 -1.6301789371792814 0 0 0
9731 1 2 0 72.96791621262902 10.695455874674114 -2.2132918898623077 0 0 0
9742 1 2 0 73.84703865105286 6.075882939049148 -2.0526193509912556 0 0 0
6876 1 1 0 74.45214380139949 10.24789174510109 -1.6449112570866498 0 0 0
9732 1 2 0 74.43610115583236 8.657473461340926 -2.173089065793855 0 0 0
9730 1 2 0 75.62920717474947 11.270132844912679 -2.2374824922613548 0 0 0
9746 1 2 0 76.5229101920799 6.159713948472632 -2.282901415312615 0 0 0
6877 1 1 0 77.11807387461447 11.777015966026942 -1.6495511162278345 0 0 0
6885 1 1 0 77.99326375855142 6.561314473219621 -1.6487198723159129 0 0 0
9744 1 2 0 78.43521846352833 8.029778324483681 -2.2603034849857377 0 0 0
9734 1 2 0 78.18462879455352 10.672386449774988 -2.238499367921229 0 0 0
6883 1 1 0 79.07103602672603 9.426411901891585 -1.6485340582002719 0 0 0
6898 1 1 0 82.87178878113951 6.726338927277706 -1.6503635465216044 0 0 0
9758 1 2 0 82.83276917803512 8.290890903148957 -2.206290148062445 0 0 0
9745 1 2 0 80.58600719102405 9.676381584989942 -2.236328478478767 0 0 0
6891 1 1 0 82.12685379899298 9.686055817253566 -1.6505741287181672 0 0 0
9754 1 2 0 82.86787667493861 11.03675030251123 -2.278454485097176 0 0 0
9767 1 2 0 84.26087317148324 6.0923473102555405 -2.2516889350396827 0 0 0
9765 1 2 0 86.86228419642639 6.330127177297947 -2.2259410986189416 0 0 0
6896 1 1 0 87.96413131379863 7.432903689365939 -1.649727071482433 0 0 0
9766 1 2 0 89.42399291435039 6.891187878834955 -2.221319960648922 0 0 0
9763 1 2 0 87.66774046907426 8.999710226945446 -2.1812606169519793 0 0 0
6895 1 1 0 88.27997099770876 10.468933819853264 -1.6526456069389952 0 0 0
9764 1 2 0 89.82076652290529 10.582214037176541 -2.2455248380306205 0 0 0
6901 1 1 0 90.90024096932231 6.40759062232027 -1.6512074966704469 0 0 0
9772 1 2 0 92.02722554526326 7.450283204106702 -2.2685595767568887 0 0 0
9770 1 2 0 92.41549887574084 10.174108580613245 -2.197775399850783 0 0 0
6900 1 1 0 92.90349384725046 8.696930175029843 -1.6434463548894938 0 0 0
9773 1 2 0 94.44990471813445 8.548837247391049 -2.1840129053626876 0 0 0
6899 1 1 0 91.22969107377907 11.179529541637903 -1.6445429370513729 0 0 0
13254 1 2 0 91.16048249614875 11.20736135855047 -5.947848415894867e-06 0 0 0
13255 1 2 0 92.8152866340379 8.648861268465634 -2.9866092984303274e-06 0 0 0
6907 1 1 0 95.80402768342027 9.339206372215143 -1.6490345962445998 0 0 0
9782 1 2 0 95.88688833952541 10.904990650025388 -2.2189547456340835 0 0 0
9784 1 2 0 96.99039719548331 8.355503774695931 -2.260358990087405 0 0 0
6912 1 1 0 98.04041398211571 7.231164682237655 -1.6492168289236697 0 0 0
9122 1 2 0 99.52627929009178 7.710361685426881 -2.2028874255491333 0 0 0
6486 1 1 0 100.50509805801727 8.910597198384794 -1.6464505692929323 0 0 0
9119 1 2 0 100.02478747938424 10.40015952352684 -2.1829462543451763 0 0 0
13267 1 2 0 97.94959791922186 7.219217318147587 -3.5392793794954046e-06 0 0 0
9139 1 2 0 12.941788951718106 12.69093395541722 -2.213606825779582 0 0 0
6497 1 1 0 9.622658471277354 14.603248598101025 -1.647579372860498 0 0 0
9103 1 2 0 8.745815186504986 13.335722532996613 -2.2427944637408914 0 0 0
9137 1 2 0 11.170651736816213 14.62597982605425 -2.2354361936136966 0 0 0
6498 1 1 0 12.668081423598224 14.223275702645026 -1.6500045346672314 0 0 0
9138 1 2 0 8.842884483437984 15.95018797628588 -2.197135673068069 0 0 0
6524 1 1 0 8.821996041110003 17.505030990559867 -1.650397533553299 0 0 0
9603 1 2 0 17.778477254959054 12.246601760417645 -2.255250887743134 0 0 0
9140 1 2 0 13.797180275371765 15.295028960180632 -2.23707753086884 0 0 0
9614 1 2 0 18.630051474410596 14.904429635472242 -2.205919751672514 0 0 0
6544 1 1 0 14.831573348585355 16.455804943244658 -1.650164559345137 0 0 0
9210 1 2 0 16.35886712989453 16.207532100428946 -2.230637849860327 0 0 0
6916 1 1 0 17.90715055912435 16.301000668249845 -1.6500628650170686 0 0 0
6806 1 1 0 18.863821790671494 13.349194811271554 -1.6460136054780408 0 0 0
13161 1 2 0 18.738047115716164 13.363467631991117 -4.9128589566662806e-08 0 0 0
9612 1 2 0 20.380082179242574 12.851399236850938 -2.1367688213283373 0 0 0
9610 1 2 0 23.166244765946836 12.954722214855934 -2.2580898710076855 0 0 0
6805 1 1 0 21.77648834271757 13.617166636449126 -1.6478743815384977 0 0 0
9613 1 2 0 21.655641433437395 15.158513018386705 -2.236229351272562 0 0 0
6820 1 1 0 22.22060412232063 16.58841673133482 -1.6485390380195648 0 0 0
9637 1 2 0 23.737813234979313 16.78493023413496 -2.2561345506374013 0 0 0
13160 1 2 0 21.852800604481153 13.61100160595566 -8.849084141938195e-07 0 0 0
6821 1 1 0 25.020908400415692 17.610390252346903 -1.6481206050110933 0 0 0
13159 1 2 0 24.253877501603228 11.90573124810099 -9.726865478042049e-07 0 0 0
9611 1 2 0 25.748684889226503 11.905184020435902 -2.2403120746210097 0 0 0
6818 1 1 0 27.088746020575265 12.676715605381638 -1.6508841025703427 0 0 0
9634 1 2 0 28.465007570602207 11.92209269476596 -2.2095271402638144 0 0 0
9633 1 2 0 26.935238657754976 14.221127008881755 -2.230913524100006 0 0 0
9635 1 2 0 26.366094333711754 16.87829252259866 -2.265060464351516 0 0 0
6819 1 1 0 27.34823688870909 15.702140787860843 -1.6452923673653173 0 0 0
9636 1 2 0 28.866191850157108 16.010942907298755 -2.1858113956795195 0 0 0
13173 1 2 0 27.11288348820479 12.667720782638138 -9.962612545002254e-07 0 0 0
6824 1 1 0 30.025285646413902 12.099667863609918 -1.6437345031904174 0 0 0
9645 1 2 0 30.518775363926203 13.611160913893283 -2.120781694248018 0 0 0
6918 1 1 0 30.074860753894836 16.99691031325052 -1.6434658323125664 0 0 0
13273 1 2 0 30.147714504259323 17.129199961116125 -4.7245896724488177e-07 0 0 0
6917 1 1 0 31.772294479972896 14.598456031178468 -1.6441978147120524 0 0 0
9659 1 2 0 33.14150873430659 13.857623062530369 -2.242529632803135 0 0 0
6832 1 1 0 34.6303993717423 13.3782828527724 -1.6475948405702665 0 0 0
9796 1 2 0 31.4496523260939 16.173055333665214 -2.172041119438789 0 0 0
9655 1 2 0 35.32974038974868 11.952783663970575 -2.1742881521786495 0 0 0
9658 1 2 0 35.63727663245923 14.52500616953843 -2.232123118752246 0 0 0
6834 1 1 0 36.65264103292835 15.668744369269188 -1.6487909845806894 0 0 0
9662 1 2 0 35.950747835813864 17.082048674657543 -2.2139291506319423 0 0 0
13189 1 2 0 36.73896054392394 15.775801689197067 1.8356617066182187e-09 0 0 0
9656 1 2 0 40.06416922125299 12.996442052902228 -2.22524644017441 0 0 0
9660 1 2 0 38.12984370030511 15.138242134302073 -2.232355358238279 0 0 0
6833 1 1 0 39.54014501268747 14.47209077798033 -1.632697568760291 0 0 0
13188 1 2 0 39.35655431539464 14.318085571795729 -2.8719456818983907e-06 0 0 0
9661 1 2 0 40.73483879184446 15.544641535728244 -2.0620172064365407 0 0 0
6831 1 1 0 41.230314362585794 11.93147691263254 -1.6536511154200058 0 0 0
9657 1 2 0 42.747325492624604 12.319358650037493 -2.2073559428105853 0 0 0
6919 1 1 0 40.77633447928946 17.144209990986667 -1.6379859203273817 0 0 0
13274 1 2 0 40.8090880325514 17.312126645001293 -1.4548900689993595e-06 0 0 0
13186 1 2 0 41.20211458909407 11.947382801838703 -2.7992899466862748e-06 0 0 0
6841 1 1 0 44.307642799855 12.285541310292201 -1.650033490256972 0 0 0
9674 1 2 0 44.98321906706788 13.689378590593863 -2.2246946832255543 0 0 0
6849 1 1 0 45.46670015872813 15.167617690431964 -1.6491690463167281 0 0 0
9687 1 2 0 44.51673560334188 16.402115375110792 -2.2236299606676218 0 0 0
13196 1 2 0 44.34134000721208 12.246544586830838 4.07745138685098e-07 0 0 0
13204 1 2 0 45.45170310954997 15.156584954518888 1.6825246547566118e-07 0 0 0
9686 1 2 0 46.98988143830884 15.438435909826932 -2.2325110214339077 0 0 0
6850 1 1 0 48.53272327429561 15.374836316514369 -1.6504781081856494 0 0 0
13205 1 2 0 48.55763762289476 15.381344405855303 -4.289990009383521e-07 0 0 0
6848 1 1 0 50.24654929268902 12.817457921455238 -1.6485673121209987 0 0 0
9684 1 2 0 49.198199523626975 13.966463441678698 -2.2281234291254086 0 0 0
9688 1 2 0 49.32697607733168 16.719097010965836 -2.225882946326626 0 0 0
9685 1 2 0 51.717877467663044 13.237310564191269 -2.2389369755655117 0 0 0
9698 1 2 0 54.04114981626224 11.934462509035715 -2.237765589519159 0 0 0
6858 1 1 0 53.24601268045955 13.25598459984799 -1.6486973445656774 0 0 0
9701 1 2 0 53.848977359272894 14.657862289737775 -2.266606537620802 0 0 0
6921 1 1 0 54.3522353882218 16.094470553661978 -1.6476446948824344 0 0 0
9801 1 2 0 53.49926103701926 17.368099046036924 -2.25369946279285 0 0 0
9802 1 2 0 55.877849255551105 16.217190168875245 -2.2296498164497005 0 0 0
6924 1 1 0 57.2509614662995 16.894460495746205 -1.6486612710275363 0 0 0
9708 1 2 0 58.40630094750211 13.079327564672866 -2.228920044368403 0 0 0
6864 1 1 0 59.11087554704663 14.475395735322993 -1.6501128536457847 0 0 0
9712 1 2 0 58.43324117146974 15.880768902500762 -2.2214029660396277 0 0 0
13279 1 2 0 57.31180938438553 16.924213168083906 4.091508203095934e-09 0 0 0
13219 1 2 0 59.061372678016745 14.441863695302155 -3.574991686571863e-07 0 0 0
9711 1 2 0 60.65181796594686 14.525236025220032 -2.232532825721132 0 0 0
6866 1 1 0 62.154542250709646 14.86979645616395 -1.6490984688089276 0 0 0
9715 1 2 0 62.69543646991208 16.310329228708166 -2.2476860442382343 0 0 0
6865 1 1 0 63.750501031195185 12.289292766833668 -1.6506975407861073 0 0 0
9714 1 2 0 65.30143910477665 12.120709003054854 -2.2204862305210518 0 0 0
9713 1 2 0 63.1448161504498 13.696246776236224 -2.2540711413633803 0 0 0
6927 1 1 0 66.56174619265438 13.013502979166496 -1.6410313533372196 0 0 0
9750 1 2 0 68.01794336373354 12.501136218081859 -2.2330973656176396 0 0 0
9810 1 2 0 66.37905818478761 14.593461056700653 -2.1102069991055696 0 0 0
6928 1 1 0 67.53700545311449 15.686778116977754 -1.6553869815623057 0 0 0
9811 1 2 0 67.13014338130425 17.141764488548983 -2.2940630916917355 0 0 0
9740 1 2 0 71.8339570081599 15.675225896508108 -2.1731772928898323 0 0 0
9812 1 2 0 69.00509401291018 15.176392773621007 -2.2883141605471025 0 0 0
6931 1 1 0 70.32305947836353 15.805909569523655 -1.5049122604969185 0 0 0
9816 1 2 0 69.9908297830212 17.416934665761783 -1.441268589058009 0 0 0
9735 1 2 0 72.1347901555169 13.151575675401865 -2.282963099501472 0 0 0
6880 1 1 0 72.85859445944476 14.471785415703687 -1.6401140003033492 0 0 0
13235 1 2 0 73.00315820917042 14.373657648645727 -1.7830937160861125e-06 0 0 0
9733 1 2 0 77.70169283836155 13.2277431435337 -2.224354598912395 0 0 0
9739 1 2 0 74.38567674015746 14.699806174788751 -2.228320825922121 0 0 0
9737 1 2 0 76.89814138895424 15.72914007918042 -2.2452497014292487 0 0 0
6881 1 1 0 75.38145110398452 15.909389118927459 -1.6533829802112385 0 0 0
9741 1 2 0 74.84647179032996 17.33238540734559 -2.299633985827318 0 0 0
13232 1 2 0 77.06014276950927 11.84078343356115 -3.3453076024273665e-06 0 0 0
6879 1 1 0 78.08925551114665 14.745637591366512 -1.6483995485413205 0 0 0
13234 1 2 0 78.16321761724005 14.669854926152496 -1.5036521282965059e-06 0 0 0
6889 1 1 0 83.53394887205127 12.41465185312508 -1.6354867828286574 0 0 0
9738 1 2 0 79.47655171206291 15.468247502595018 -2.2187543509982883 0 0 0
9753 1 2 0 82.85864832138401 13.82676100951299 -2.2033832062982026 0 0 0
6890 1 1 0 83.20806616147179 15.368163250847026 -1.650754726138834 0 0 0
6892 1 1 0 80.48468942862254 16.676444300937156 -1.6509942394582104 0 0 0
9756 1 2 0 82.00443500632042 16.34182870414777 -2.2217128109964235 0 0 0
13245 1 2 0 83.24505169261327 15.33946314083568 -2.1458101959286553e-06 0 0 0
9757 1 2 0 84.6420599682456 16.02300712457964 -2.1889144566932965 0 0 0
9755 1 2 0 85.11222063768498 12.459792717311858 -2.0972834402008456 0 0 0
6893 1 1 0 86.59287550987307 13.027123538942885 -1.6381860421382817 0 0 0
9761 1 2 0 87.57931249281755 11.848050970764307 -2.2655198672850747 0 0 0
9760 1 2 0 86.90580915582171 14.58466324370566 -2.1866247537903125 0 0 0
6894 1 1 0 86.22394889824507 16.03433917553666 -1.649795339775681 0 0 0
9762 1 2 0 86.98827677487876 17.41704693613802 -2.214219434771441 0 0 0
9771 1 2 0 91.58182211549688 12.692065906265448 -2.2079599146339075 0 0 0
9776 1 2 0 94.26448116050999 13.153550540314859 -2.2226504487595906 0 0 0
6902 1 1 0 92.7900755213036 13.686450334003903 -1.6506714032778536 0 0 0
9775 1 2 0 92.29649372270583 15.174984170468447 -2.2050556410064455 0 0 0
6903 1 1 0 92.76004733825117 16.668581523518643 -1.6464706172142332 0 0 0
9778 1 2 0 94.34530317403048 16.71130007189567 -2.1674202591343175 0 0 0
13257 1 2 0 92.86401273237168 13.705911773190765 -5.9095997827231675e-06 0 0 0
6906 1 1 0 95.66928370428106 12.466090789507959 -1.650917916912288 0 0 0
6485 1 1 0 100.59246665437192 11.86198420169145 -1.6501635164004154 0 0 0
9120 1 2 0 99.56556439945008 12.98347907866458 -2.2735468850130816 0 0 0
9783 1 2 0 96.90557131221736 13.434542215216567 -2.206562707786928 0 0 0
6909 1 1 0 98.3845006785388 13.950884222094267 -1.6489805682602263 0 0 0
9786 1 2 0 98.82213864534405 15.457292994090206 -2.190852173197245 0 0 0
6910 1 1 0 98.52669324596783 16.997092476683463 -1.6519918236450555 0 0 0
9787 1 2 0 97.0301991207471 17.344743477013836 -2.2700285341149593 0 0 0
13265 1 2 0 98.54956150596766 17.041805500036165 -1.1696101785527388e-06 0 0 0
12840 1 2 0 100.61558491261455 11.930591750510498 6.401294223264483e-06 0 0 0
9179 1 2 0 10.196259580274491 18.22957292176572 -2.242984969863138 0 0 0
6542 1 1 0 10.993148687466201 19.55320409497588 -1.6376629013027735 0 0 0
9206 1 2 0 12.525032103854048 19.781046191422824 -2.2399461161807226 0 0 0
9207 1 2 0 10.039385058882743 20.82398185124254 -2.084315231729222 0 0 0
6566 1 1 0 10.227936787087922 22.401513859165803 -1.6367909528789235 0 0 0
9243 1 2 0 8.924075496879196 23.162895400977646 -2.2927798949283904 0 0 0
9244 1 2 0 11.671394507704006 22.916376592643164 -2.259182762389732 0 0 0
9795 1 2 0 18.63462523831734 17.715520038510412 -2.1880147539585613 0 0 0
6543 1 1 0 14.045611013033836 19.429609900919505 -1.650138839678359 0 0 0
9208 1 2 0 14.386055559832206 17.931126810744043 -2.2435205066723394 0 0 0
9209 1 2 0 15.227215600967803 20.484476742297723 -2.1794588059603184 0 0 0
6608 1 1 0 15.602662492631195 22.02390371510399 -1.6493139215349488 0 0 0
12963 1 2 0 15.642660171008094 22.050602191050082 -5.694240027548288e-07 0 0 0
9306 1 2 0 17.028012311128737 22.645107820061085 -2.236352919987794 0 0 0
9302 1 2 0 14.401471142141832 22.977053167444772 -2.266216703816718 0 0 0
12898 1 2 0 14.03511448751175 19.45746454558261 -3.4667648671259346e-07 0 0 0
9638 1 2 0 21.29722217984143 17.82065447748347 -2.2231214202037175 0 0 0
6948 1 1 0 19.956533860846665 18.59890791667307 -1.6476677229658934 0 0 0
9842 1 2 0 20.13075877493829 20.15635482391879 -2.2242246536470596 0 0 0
6984 1 1 0 20.74487145058995 21.608004065261646 -1.6492364546732818 0 0 0
9895 1 2 0 22.27330929096636 22.013996378478605 -2.2022993576686143 0 0 0
9894 1 2 0 19.708466080220614 22.787816469255546 -2.1885544936536934 0 0 0
7015 1 1 0 23.707519982045028 22.691906505100903 -1.65174062565414 0 0 0
9639 1 2 0 24.90337297735465 19.17757034998123 -2.1580078936113907 0 0 0
9899 1 2 0 25.024512094644034 21.81583091716278 -2.211943275765514 0 0 0
6986 1 1 0 28.893740789592876 19.87009605904424 -1.649360492839477 0 0 0
9797 1 2 0 29.72094660195455 18.526514822623373 -2.227136394656183 0 0 0
6987 1 1 0 25.819997607023577 20.463115282865495 -1.643405126523673 0 0 0
9897 1 2 0 27.35617538767622 20.172448308399773 -2.2283743975518817 0 0 0
13341 1 2 0 28.843932087029245 19.776127765645146 5.9391343524581e-07 0 0 0
9898 1 2 0 29.722746343787364 21.183004434769533 -2.195579587160324 0 0 0
6989 1 1 0 30.902309618369383 22.18802281776804 -1.6449781794619796 0 0 0
13344 1 2 0 31.000823889619628 22.280502280589126 9.451829230185541e-07 0 0 0
9852 1 2 0 34.386766988048976 19.522946493457315 -2.195566695273061 0 0 0
9900 1 2 0 32.31454570888972 21.494819537900714 -2.2106275556305075 0 0 0
6988 1 1 0 33.81269744992413 21.015212892399017 -1.652784051052182 0 0 0
9901 1 2 0 34.81335465116906 22.18492424655159 -2.268941957453152 0 0 0
6955 1 1 0 35.707721386081246 18.63523180780014 -1.641949975880067 0 0 0
13310 1 2 0 35.578729890125366 18.563957881121816 -7.72320806590741e-07 0 0 0
7020 1 1 0 35.612218080204606 23.47413419681088 -1.6413830978775994 0 0 0
9799 1 2 0 39.42492351446152 17.923016378252726 -2.2221538884481196 0 0 0
9851 1 2 0 37.06503145582853 19.431426726267894 -2.167289169536786 0 0 0
6956 1 1 0 38.62660989129355 19.271256951811747 -1.6538595111867866 0 0 0
9853 1 2 0 39.34654508196855 20.579983822026787 -2.35430775077421 0 0 0
6990 1 1 0 40.15557918312617 21.78553309571556 -1.5998140893751787 0 0 0
13311 1 2 0 38.63556243174005 19.224930019650433 -1.8107273182365037e-06 0 0 0
9904 1 2 0 39.772530004120206 23.277509161856454 -2.215962900844063 0 0 0
9946 1 2 0 37.16589654659761 23.27135163555224 -2.159267518736223 0 0 0
9798 1 2 0 42.178452465336406 17.75068649843831 -2.2630812279120422 0 0 0
9903 1 2 0 41.75749270992029 21.492482294741226 -1.8187104137312269 0 0 0
6920 1 1 0 43.72165205039675 17.745799827378757 -1.6519478581875355 0 0 0
9800 1 2 0 44.381087094238694 19.148407320829545 -2.231125058934985 0 0 0
6959 1 1 0 44.98449769604422 20.579374130537612 -1.6555000499082915 0 0 0
9858 1 2 0 44.246325843305435 21.943804720118152 -2.268902252893659 0 0 0
6991 1 1 0 42.9168002282065 22.659014459315145 -1.5944400697628618 0 0 0
13275 1 2 0 43.75131391003279 17.72287488886252 2.2419439726724895e-08 0 0 0
9857 1 2 0 46.50450619057349 20.707751816029923 -2.2533899962742083 0 0 0
6960 1 1 0 48.02863386327431 20.75440632399208 -1.6498412163761276 0 0 0
13315 1 2 0 48.04620980306768 20.751919181627592 3.583207999208363e-08 0 0 0
9804 1 2 0 48.741520503002185 19.38838131743991 -2.2407491916652433 0 0 0
6922 1 1 0 49.74610445980126 18.21864238131008 -1.64928638681791 0 0 0
9803 1 2 0 51.22706949777371 18.65475807490169 -2.2295123442654563 0 0 0
9859 1 2 0 48.73918184809048 22.130289644437926 -2.244018408237905 0 0 0
6923 1 1 0 52.76862514543709 18.71789253326842 -1.6501686418940493 0 0 0
9805 1 2 0 53.53061366003586 20.07335897675754 -2.2356897010920096 0 0 0
6992 1 1 0 53.77327513156308 21.607216947931384 -1.6491374692945693 0 0 0
13347 1 2 0 53.81153681230423 21.563691477414338 -2.2020687092200194e-07 0 0 0
9907 1 2 0 52.544944512244676 22.567715449190068 -2.212538920783113 0 0 0
9906 1 2 0 55.18125144879344 22.26378809838488 -2.2201831053743892 0 0 0
6993 1 1 0 56.71606114697859 22.528219815376232 -1.6508969601601562 0 0 0
13348 1 2 0 56.75422609862599 22.558721468175143 -2.1623978592085142e-07 0 0 0
9806 1 2 0 57.23631117921972 18.460640529504705 -2.2150643303678823 0 0 0
6968 1 1 0 58.086032320114576 19.771537061327262 -1.6445140380914998 0 0 0
9871 1 2 0 59.60844332662001 19.423169659889723 -2.1720580566293637 0 0 0
9872 1 2 0 57.61556846223338 21.249902302701148 -2.237942373253447 0 0 0
6969 1 1 0 61.069599176297444 19.95662568703231 -1.6452188357081066 0 0 0
9814 1 2 0 62.188825237968345 18.933313843988458 -2.274859546485351 0 0 0
9873 1 2 0 61.23400858967024 21.475838052538677 -2.2617347826749876 0 0 0
6995 1 1 0 61.91141894526669 22.840803160191776 -1.6485274562735086 0 0 0
6929 1 1 0 63.18316776319244 17.77288213813497 -1.6505686221520284 0 0 0
9813 1 2 0 64.6765750657597 18.148316306263254 -2.2292915719683024 0 0 0
9909 1 2 0 65.91940395892014 22.18791362677306 -2.2965274680563312 0 0 0
9911 1 2 0 63.43340094840646 22.89731531666121 -2.255837044672273 0 0 0
6996 1 1 0 64.9010190932491 23.293549965304663 -1.6486865695791277 0 0 0
13284 1 2 0 63.146067719236775 17.75426960422359 -1.1573599718664527e-06 0 0 0
13285 1 2 0 66.1814929114737 18.34040882930363 3.4320356771333194e-07 0 0 0
13351 1 2 0 64.91779129234341 23.287508663531593 -7.720741349203743e-07 0 0 0
6930 1 1 0 66.21107948767018 18.35059148977339 -1.649735095895452 0 0 0
9815 1 2 0 66.88119842767755 19.737503068784104 -2.2371374205645824 0 0 0
6994 1 1 0 67.10733466147246 21.265035080971888 -1.6535290775540443 0 0 0
13349 1 2 0 67.06128601725707 21.23390381444517 -1.174080627772818e-06 0 0 0
9882 1 2 0 69.99475823815165 19.84593250394466 -2.2091214689522034 0 0 0
6975 1 1 0 70.97126482727764 18.724761943528236 -1.5194338768056592 0 0 0
9910 1 2 0 68.51613236358378 21.960146020415326 -2.2070320676757684 0 0 0
6997 1 1 0 69.96507139216959 21.400702441706272 -1.6367527559286885 0 0 0
9914 1 2 0 71.32514079917236 22.061432338614885 -2.280744605679723 0 0 0
13330 1 2 0 71.37838496322287 19.282852066255987 1.3932217058025448e-06 0 0 0
13352 1 2 0 69.95407500712615 21.63192556728403 -6.242924508470814e-07 0 0 0
9823 1 2 0 72.37688499039525 18.463604334173922 -2.3527533141315224 0 0 0
7000 1 1 0 72.59764272951848 22.911420773953193 -1.6519087464810749 0 0 0
6935 1 1 0 73.84091969179295 18.415790727081244 -1.577531148038727 0 0 0
9822 1 2 0 74.52568455981238 19.87815178577455 -1.7204624436249025 0 0 0
6938 1 1 0 75.13612199870657 21.379973594079598 -1.570975115032416 0 0 0
9826 1 2 0 76.6266800618514 21.302302740132834 -2.2758680443942976 0 0 0
13293 1 2 0 75.31348216692864 21.85908238351482 -3.1814001489823137e-06 0 0 0
9828 1 2 0 74.05412374335921 22.421955766490907 -2.2840452818243127 0 0 0
6937 1 1 0 78.09180141202208 21.782183642413692 -1.6513796871766184 0 0 0
9827 1 2 0 78.16480538254892 23.345884310766003 -2.19409262328932 0 0 0
13292 1 2 0 78.17085052001205 21.72936349637021 -1.862743183320437e-06 0 0 0
9759 1 2 0 80.1265885881476 18.210647918731222 -2.2054208661605688 0 0 0
6936 1 1 0 80.46575344969027 19.749330449898117 -1.6504188411232104 0 0 0
9825 1 2 0 81.99805448657796 20.211594930515876 -2.156893790558278 0 0 0
9824 1 2 0 79.28992221837379 20.784300994540267 -2.240124293090442 0 0 0
6978 1 1 0 82.96015733808642 21.483451061844242 -1.6497617596446394 0 0 0
13291 1 2 0 80.42571311054377 19.76703826799931 2.585781874730344e-06 0 0 0
13333 1 2 0 83.02706440976608 21.510512617335745 -3.3984753142272176e-06 0 0 0
9887 1 2 0 82.21607531003887 22.834579033486573 -2.2716128100572877 0 0 0
9886 1 2 0 84.52996120396088 21.43524069988529 -2.214452843028147 0 0 0
9780 1 2 0 86.92041169118392 20.231574231818172 -2.1850203380152644 0 0 0
6904 1 1 0 87.69335973485941 18.841931143244064 -1.6500838622539058 0 0 0
9779 1 2 0 89.26637878852014 18.909012673415337 -2.2041615093091704 0 0 0
6979 1 1 0 86.10280368213387 21.593145997979423 -1.6517145668214288 0 0 0
9888 1 2 0 86.81879188000293 23.023779545537582 -2.2107742117184648 0 0 0
9777 1 2 0 91.78195169075985 17.888906090059187 -2.2291628153880843 0 0 0
6905 1 1 0 90.82245482804053 19.13988071858337 -1.6527467916367498 0 0 0
9788 1 2 0 95.11309081740553 19.163446135101434 -2.274762528086911 0 0 0
9781 1 2 0 91.37723019236893 20.62223347784473 -2.2107862392137596 0 0 0
9892 1 2 0 93.95294478519213 21.517160095595877 -2.2052653067552725 0 0 0
6983 1 1 0 92.42244274763159 21.802789327155267 -1.6490831080567812 0 0 0
6982 1 1 0 95.23739132021305 20.66594567075751 -1.6480286650601983 0 0 0
13337 1 2 0 95.23074910830593 20.65921475387142 -1.2259302048512437e-05 0 0 0
9893 1 2 0 92.18340559513376 23.333806164307124 -2.267686418694775 0 0 0
6911 1 1 0 95.55230763275259 17.70916792539258 -1.6460913205463958 0 0 0