LAMMPS data file via write_data, version 2 Aug 2023, timestep = 116, units = metal

16212 atoms
2 atom types

7.56462926019241 200.88350397666943 xlo xhi
6.596817158256633 174.51659761710445 ylo yhi
-100 100 zlo zhi

Masses

1 28.085
2 15.999

Atoms # full

9837 1 2 0 8.94625720066232 7.447543308418526 -2.251028714089938 0 0 0
9845 1 2 0 11.738807231383614 7.438423883564976 -2.2447437098475165 0 0 0
6982 1 1 0 10.336310259090794 6.777421958281045 -1.6431207505284517 0 1 0
6981 1 1 0 13.003914732274211 8.331030101992845 -1.643235478968862 0 0 0
6974 1 1 0 8.785267991600294 10.9762508833428 -1.653638289138555 0 0 0
9834 1 2 0 7.713903384845108 9.815556639445191 -2.1817188393173588 0 0 0
6977 1 1 0 11.791794569965878 11.031228958435426 -1.6396804092839126 0 0 0
9835 1 2 0 10.30333668925003 10.557616540056413 -2.1763556910858197 0 0 0
9839 1 2 0 12.865725887910827 9.895244840075131 -2.15931158766201 0 0 0
6976 1 1 0 7.613316212384096 8.229447265520188 -1.6486423667314067 1 0 0
13731 1 2 0 7.6455027088906435 8.196066890343399 -3.1121201466265974e-08 1 0 0
13729 1 2 0 8.703342992290379 11.030199714726962 -2.1836251953942254e-07 0 0 0
9846 1 2 0 14.478010580993843 7.867628113626481 -2.232976047650165 0 0 0
7009 1 1 0 16.032497965894947 7.909661967899101 -1.6490022870524792 0 0 0
9884 1 2 0 16.928295563543877 9.198940069996484 -2.218968716124771 0 0 0
7010 1 1 0 17.53563898238148 10.638216001489432 -1.6466640662567882 0 0 0
9887 1 2 0 16.558024972520037 11.839819378956747 -2.221912345092505 0 0 0
13764 1 2 0 16.041394134532737 7.949255836517372 -5.298644449533822e-07 0 0 0
9891 1 2 0 21.085321992478 7.223983335969451 -2.204315968691449 0 0 0
7012 1 1 0 21.990950042539712 8.51905818841501 -1.6469823025161348 0 0 0
9892 1 2 0 23.557661672103375 8.588443388570173 -2.200214105118941 0 0 0
9886 1 2 0 19.03645116467808 11.05092884590088 -2.217667369328164 0 0 0
9890 1 2 0 21.36946427844524 9.93687525075533 -2.2220642828020134 0 0 0
7013 1 1 0 20.57838677823836 11.264791987992174 -1.646663603435185 0 0 0
9903 1 2 0 25.976546130941397 7.662127074005359 -2.2181164193219063 0 0 0
7020 1 1 0 25.085380634958536 8.938349823565403 -1.6471542022889691 0 0 0
9902 1 2 0 25.739509230235353 10.38109568973672 -2.205256408159151 0 0 0
7021 1 1 0 26.478000846826117 11.78155718825972 -1.6471915600020837 0 0 0
9905 1 2 0 28.02297468675149 12.003728434542833 -2.2113824101224684 0 0 0
9916 1 2 0 30.150760820367392 7.810120754420737 -2.229152623040927 0 0 0
9915 1 2 0 30.179006395329527 10.603313475612108 -2.2142259948560468 0 0 0
7029 1 1 0 29.579681437907148 12.040519386531367 -1.6460921399406032 0 0 0
13776 1 2 0 26.474456092285227 11.73004764712157 -6.018757610619074e-07 0 0 0
13784 1 2 0 29.61318618137109 12.085752936317357 -6.0041190122808e-08 0 0 0
7028 1 1 0 30.839905354167655 9.199592798586442 -1.647814724282072 0 0 0
9917 1 2 0 32.3708629555836 9.218180331514402 -2.271220608290688 0 0 0
7031 1 1 0 33.771612350583794 9.788929484532803 -1.6446077065721538 0 0 0
9920 1 2 0 34.16745993276092 11.30713406906237 -2.1425022973995085 0 0 0
13783 1 2 0 30.791231410926137 9.178339653128704 -5.3930304806850814e-08 0 0 0
9921 1 2 0 34.99352878738513 8.83766687670612 -2.2420978257426505 0 0 0
7035 1 1 0 35.23153564429153 7.332351805938646 -1.6333874216659292 0 0 0
7032 1 1 0 35.58924894017061 12.019753862861029 -1.6425116247916707 0 0 0
13790 1 2 0 35.30031672731513 7.442518358781556 -2.2600807836565076e-08 0 0 0
9928 1 2 0 36.64251410780785 6.6817611759755025 -2.162104913004196 0 0 0
7041 1 1 0 38.112423165087286 7.231652911613021 -1.63622930088177 0 0 0
9935 1 2 0 38.2473683788458 8.75229117556876 -2.258525896035146 0 0 0
7040 1 1 0 38.147522351184875 10.292146852441721 -1.6460404224338845 0 0 0
9923 1 2 0 36.91929002538358 11.234373943706329 -2.25349129707465 0 0 0
9936 1 2 0 39.54502982120333 10.964730903739797 -2.1945615881675042 0 0 0
7053 1 1 0 41.09655195707428 10.92139241063296 -1.6453073762716415 0 0 0
13796 1 2 0 38.27582270178441 7.313800783444927 -7.273219038595497e-07 0 0 0
13795 1 2 0 38.02824173670436 10.251817795327348 -2.0538724354647105e-07 0 0 0
9950 1 2 0 43.44613335548146 7.336349079850638 -2.2124398737345246 0 0 0
7048 1 1 0 43.346280362217975 8.894195167051347 -1.6472773209637341 0 0 0
9951 1 2 0 41.95730585773299 9.619361932468575 -2.2175509431144023 0 0 0
9940 1 2 0 44.6582999480402 9.75220730727265 -2.1967586535233212 0 0 0
9938 1 2 0 46.982754316591915 11.090892853572981 -2.2393003725081218 0 0 0
7042 1 1 0 45.44555230224395 11.098795233475647 -1.6467757829419765 0 0 0
13797 1 2 0 45.46519953776321 11.102525614673874 -4.1317739858646595e-08 0 0 0
7049 1 1 0 49.53850743884971 7.933305328088799 -1.6482245717562194 0 0 0
9952 1 2 0 48.50106948306335 6.73734626015675 -2.2016869730791857 0 0 0
7043 1 1 0 48.503138438592785 10.85115550072404 -1.6474631466085323 0 0 0
9942 1 2 0 48.99875501174266 9.386362579679092 -2.2208766368188977 0 0 0
9953 1 2 0 51.10694380541792 7.859586765171466 -2.216854328108352 0 0 0
7058 1 1 0 52.62969059733345 7.512447942098325 -1.6441485950862815 0 0 0
13798 1 2 0 48.52835870477134 10.867494626991926 -2.3286767566042177e-07 0 0 0
9941 1 2 0 49.46640385209194 12.0583092667071 -2.244524528436076 0 0 0
9964 1 2 0 53.90771214379325 8.4331105519724 -2.1964984559109344 0 0 0
7057 1 1 0 55.42440851237184 8.874523683601025 -1.647780952278406 0 0 0
9961 1 2 0 55.67166629800698 10.395815806302354 -2.233061635423551 0 0 0
7055 1 1 0 55.81831714475777 11.929481112382359 -1.647956464314321 0 0 0
9965 1 2 0 56.713387990329764 7.96931136108796 -2.2073788397580585 0 0 0
7065 1 1 0 57.89307860866039 6.932916367546151 -1.6450327381034873 0 0 0
13820 1 2 0 57.91811737962807 7.017912736158428 -4.347719867299804e-07 0 0 0
13810 1 2 0 55.81046754520966 11.935781394131807 -5.804371695580603e-07 0 0 0
7070 1 1 0 60.994890053130135 7.124200334366277 -1.647172918351059 0 0 0
9976 1 2 0 59.43545335731296 7.15781303641242 -2.2276195061069295 0 0 0
9982 1 2 0 61.65837713378489 8.5180928066225 -2.2166540901241527 0 0 0
7069 1 1 0 62.63120055089144 9.713784422771647 -1.646641243279301 0 0 0
9980 1 2 0 62.03135244784563 11.110888279359088 -2.2668985589514645 0 0 0
9983 1 2 0 64.16370150914453 9.51825055955886 -2.233766316048484 0 0 0
13824 1 2 0 62.63450963432675 9.736813574466526 -1.2668644836994755e-07 0 0 0
9997 1 2 0 65.73149133395803 7.317388934974701 -2.276203579596818 0 0 0
7077 1 1 0 65.53533260669744 8.813155782852718 -1.6451688267229287 0 0 0
9987 1 2 0 66.87947961197555 9.585008918234298 -2.1889635141314776 0 0 0
7071 1 1 0 67.50499677680345 11.00019806172116 -1.6435999828807069 0 0 0
9985 1 2 0 69.0322232381162 11.123441912179091 -2.2431391740910525 0 0 0
9986 1 2 0 66.46997810430565 12.15207748788564 -2.21821478723472 0 0 0
9998 1 2 0 69.83870605059802 6.617127679972911 -2.2114808994212427 0 1 0
9989 1 2 0 70.83497686474684 9.097487402875135 -2.242228734160368 0 0 0
7078 1 1 0 71.06850339033132 7.572567714817222 -1.6472458099496445 0 0 0
7072 1 1 0 70.48588265218226 10.598711682196818 -1.649627342094381 0 0 0
9988 1 2 0 71.60080984030704 11.661005711991123 -2.243712633681622 0 0 0
13833 1 2 0 71.05924255469881 7.581987000997038 -1.2732948707393632e-06 0 0 0
9999 1 2 0 72.52881245168429 7.0057696994543734 -2.2006976677971952 0 0 0
7086 1 1 0 74.08659831910863 7.132838663263241 -1.6471706460748168 0 0 0
10008 1 2 0 74.74294405502971 8.533149946022148 -2.231006896791442 0 0 0
10007 1 2 0 75.31965120158077 11.11954268198098 -2.2633504790228463 0 0 0
7084 1 1 0 75.78744212876613 9.667815593143445 -1.6478549408406693 0 0 0
13841 1 2 0 74.09845952599619 7.1244436104079 -2.4191092610309566e-07 0 0 0
10013 1 2 0 79.14868975483289 7.627856039375864 -2.219029851073974 0 0 0
10009 1 2 0 77.29784552818913 9.419058503032339 -2.244932637368156 0 0 0
7087 1 1 0 78.80007180735666 9.134438333338242 -1.6473850173699183 0 0 0
10012 1 2 0 79.83040634277252 10.287360041225991 -2.2458134891804473 0 0 0
7088 1 1 0 80.6324188253095 11.601866796044138 -1.645500669812892 0 0 0
10015 1 2 0 82.16684452695631 11.618642356293497 -2.234566843237896 0 0 0
10026 1 2 0 84.10039219544849 7.457085735633393 -2.2356594974783937 0 0 0
7095 1 1 0 84.8790556504212 8.8135801375455 -1.64158458695313 0 0 0
10027 1 2 0 86.45350184451573 8.797864227582933 -2.1273850605195572 0 0 0
10024 1 2 0 84.37147147039958 10.271941759773219 -2.2445242576270714 0 0 0
7094 1 1 0 83.70660973185636 11.667279538997676 -1.648167125059425 0 0 0
10020 1 2 0 81.56452632141763 6.710873614370552 -2.2123303742368443 0 1 0
7101 1 1 0 87.808687927833 7.995218027935393 -1.6357773799532025 0 0 0
10033 1 2 0 89.07204136178976 8.952981756591463 -2.197549248138296 0 0 0
7099 1 1 0 90.14561552818972 10.135578468298677 -1.6516500371718468 0 0 0
10034 1 2 0 91.6607089714676 9.671215967092431 -2.2014877417677075 0 0 0
10032 1 2 0 89.78443087099603 11.707650630493873 -2.1841595911613347 0 0 0
13854 1 2 0 90.11597262985386 10.15182820303775 -2.4212723386175203e-07 0 0 0
7103 1 1 0 93.12899556998117 9.101975355920095 -1.6457108307475818 0 0 0
10040 1 2 0 93.54739225216798 7.592823094746679 -2.213634716839317 0 0 0
7114 1 1 0 97.97970344496159 8.15315044293423 -1.6457202458050164 0 0 0
10058 1 2 0 97.4229479179974 6.731282532115924 -2.227674100765211 0 0 0
10039 1 2 0 94.33438675992399 10.121254220874375 -2.18101842375613 0 0 0
7104 1 1 0 95.88151547131181 10.397104132573256 -1.6477894833631586 0 0 0
10042 1 2 0 96.95755859123237 9.295698231967481 -2.23812776396199 0 0 0
10041 1 2 0 96.42552665813756 11.822619934660395 -2.272455922567705 0 0 0
13859 1 2 0 95.89488724682043 10.403991908696913 -9.414192773059626e-08 0 0 0
13858 1 2 0 93.0671570251515 9.075263089564888 -1.1156557782142465e-07 0 0 0
10059 1 2 0 99.4961394261379 8.347577383947979 -2.26395563942194 0 0 0
7116 1 1 0 101.0139560763171 8.506927893516316 -1.6468343072933282 0 0 0
10061 1 2 0 101.98816242523591 7.295979501734396 -2.225161007638219 0 0 0
9851 1 2 0 101.51064317424351 9.988270835846924 -2.191676367031122 0 0 0
6984 1 1 0 102.71528162422639 10.972736347737916 -1.6464743246582363 0 0 0
9686 1 2 0 104.11353731093621 10.37748892077261 -2.2821837952331125 0 0 0
13739 1 2 0 102.72802531759025 11.006633368827023 -1.8797395922893513e-07 0 0 0
9833 1 2 0 8.547407773257062 12.489255196514954 -2.315082909611847 0 0 0
6975 1 1 0 7.685572821265708 13.656821989343499 -1.5092988104691907 1 0 0
9838 1 2 0 12.282412381280663 12.475354496541453 -2.2601391197875493 0 0 0
6980 1 1 0 11.477911374761407 16.151648041865936 -1.6226333248539577 0 0 0
9842 1 2 0 12.541261542599923 15.100212372025124 -2.291921483116355 0 0 0
6978 1 1 0 8.500177463561238 16.385140148019836 -1.6259275600214795 0 0 0
9840 1 2 0 9.954042872680489 15.705084447956343 -2.021423293903517 0 0 0
9844 1 2 0 11.64724072438254 17.659652029315414 -2.2443225735553605 0 0 0
13733 1 2 0 8.270630254621905 16.60339484828773 -4.573334704792785e-07 0 0 0
6979 1 1 0 13.183709178160127 13.72132177668352 -1.6528451805749307 0 0 0
13734 1 2 0 13.177401300670459 13.707534997988077 -4.441920602440841e-07 0 0 0
9843 1 2 0 14.716275313471808 13.695745944178086 -2.2457459759248444 0 0 0
7015 1 1 0 16.207279549942587 13.342007408146383 -1.6465278883599697 0 0 0
9895 1 2 0 17.298803712029475 14.473194320691038 -2.1892246627332814 0 0 0
7122 1 1 0 17.4593290517818 16.034698308504947 -1.6466161938935397 0 0 0
10069 1 2 0 16.139616771487567 16.874841810846963 -2.1998211232580642 0 0 0
10068 1 2 0 18.838528586348247 16.753225721462726 -2.2168890831260586 0 0 0
9893 1 2 0 21.31805753347078 12.648343159471635 -2.2204964994367633 0 0 0
9907 1 2 0 21.037810362469767 15.323947828528361 -2.2140771571922344 0 0 0
7022 1 1 0 21.96447180124724 14.080110452858612 -1.6464223264331888 0 0 0
9906 1 2 0 23.48580534110071 14.440128479154355 -2.2065360463903967 0 0 0
7123 1 1 0 20.399106918020504 16.73893173497339 -1.6473775302221416 0 0 0
13777 1 2 0 21.977406329750675 14.01602899002283 -1.7315611633394474e-07 0 0 0
13878 1 2 0 20.4377420503609 16.771377092497723 -3.0351530180785996e-07 0 0 0
9904 1 2 0 25.713627582724413 13.136969511674998 -2.2117740661087852 0 0 0
7023 1 1 0 25.046378268824697 14.544974397881122 -1.6467146094283887 0 0 0
9908 1 2 0 25.843270184703293 15.914196355376319 -2.1990307140215752 0 0 0
7124 1 1 0 26.6569807864891 17.279571411510666 -1.6474987742585685 0 0 0
10071 1 2 0 28.231537065604122 17.320833954406982 -2.195696030106789 0 0 0
7125 1 1 0 29.802745423621175 17.458271054094443 -1.647660590847212 0 0 0
13880 1 2 0 29.809850453222694 17.48478036233636 -5.869188551570412e-08 0 0 0
9918 1 2 0 30.45273714592417 13.357733017220532 -2.2023935907390917 0 0 0
7033 1 1 0 31.308380297182897 14.693113878983638 -1.6488559154790248 0 0 0
9924 1 2 0 32.88294134516355 14.668968195018234 -2.2152676704299066 0 0 0
9925 1 2 0 30.61651088805825 16.109634386199378 -2.195056774258282 0 0 0
7034 1 1 0 34.447647008701296 14.779986213127199 -1.64844901839143 0 0 0
9922 1 2 0 35.42820657355223 13.558525015653727 -2.2156807246133345 0 0 0
9926 1 2 0 35.22445769349782 16.14530457291842 -2.1922712492768937 0 0 0
13788 1 2 0 31.305345766606013 14.666279738240874 -1.3449092410863756e-07 0 0 0
13789 1 2 0 34.38579666961398 14.764958501903724 -3.2812863336999297e-07 0 0 0
7132 1 1 0 36.58405980358109 16.930816446819847 -1.6481106320312966 0 0 0
10082 1 2 0 37.981588696328 16.211819839074227 -2.218190172434645 0 0 0
7131 1 1 0 39.53465891442687 16.053015677845323 -1.6486493965283198 0 0 0
9958 1 2 0 40.23765549600604 14.656164995516383 -2.2236909894803647 0 0 0
7052 1 1 0 41.59125843601019 13.886145817748135 -1.643489745606584 0 0 0
10083 1 2 0 40.50090811005128 17.263573246302844 -2.2259774503412277 0 0 0
9957 1 2 0 41.71388690330834 12.341499141261291 -2.22182316248021 0 0 0
9939 1 2 0 44.68617089841201 12.444440156876064 -2.238311040959902 0 0 0
9944 1 2 0 43.019396770710365 14.60241324592308 -2.1271107668550284 0 0 0
7044 1 1 0 44.4887126348686 13.974903289337453 -1.6446986529475376 0 0 0
9948 1 2 0 45.29438229537257 17.505100020615828 -2.246385714509183 0 0 0
13799 1 2 0 44.55262667731176 13.940226514625028 -6.215915227561982e-07 0 0 0
9943 1 2 0 45.72595368763377 14.903322981693714 -2.221059786637523 0 0 0
7046 1 1 0 46.29950853572757 16.34685814768568 -1.6473396526022297 0 0 0
7045 1 1 0 50.35329824538337 13.318450968152856 -1.6477034808755886 0 0 0
9945 1 2 0 49.76165574470677 14.747370204941422 -2.235627106848743 0 0 0
9947 1 2 0 47.82766465314709 16.589470850917323 -2.2244579167511858 0 0 0
7047 1 1 0 49.344093855144415 16.233946779169496 -1.6486208629763088 0 0 0
9949 1 2 0 50.43493078513923 17.35811239320181 -2.203961872158584 0 0 0
13802 1 2 0 49.33899885329809 16.21868137416617 -5.615756994459571e-08 0 0 0
9946 1 2 0 51.90188202826818 13.131689124589453 -2.2083894480054376 0 0 0
13800 1 2 0 50.3062493487928 13.315491995738906 -2.051419090242954e-07 0 0 0
9960 1 2 0 54.560316558538304 12.822259684611767 -2.2456675090967937 0 0 0
7056 1 1 0 53.32863871339573 13.745196601616515 -1.6457978271927987 0 0 0
9963 1 2 0 53.45391279213615 15.318385530964571 -2.1738382766503253 0 0 0
7063 1 1 0 54.56398693432706 16.429934500601675 -1.6439385985383905 0 0 0
7062 1 1 0 58.53384905321137 13.384199223282437 -1.6462911028196865 0 0 0
9962 1 2 0 57.243123980958494 12.532222073852706 -2.229403293710355 0 0 0
9970 1 2 0 58.494668184543656 14.950572255172423 -2.191788542912275 0 0 0
9972 1 2 0 56.02693904798244 15.926356168288427 -2.2224127263557256 0 0 0
7064 1 1 0 57.54617899758109 16.19107573694572 -1.6455133274277476 0 0 0
9974 1 2 0 58.062994613072576 17.6606440179414 -2.2060248001903076 0 0 0
13819 1 2 0 57.542953312783474 16.20201791051963 -3.2006790062286164e-07 0 0 0
13817 1 2 0 58.53067732491626 13.336859709544003 -3.226445865162792e-07 0 0 0
13811 1 2 0 53.36023894479183 13.703682263254413 -2.8331834619806193e-07 0 0 0
9971 1 2 0 59.91553011829079 12.712276149815162 -2.2448174577964317 0 0 0
10102 1 2 0 60.66566086645126 17.519578866776378 -2.201512940852094 0 0 0
13823 1 2 0 61.43006891122866 12.496361076270775 -4.279307734706375e-07 0 0 0
7068 1 1 0 61.44276224689176 12.516464978139384 -1.6468620699674437 0 0 0
9981 1 2 0 62.412346681118414 13.71934239280733 -2.21211255851462 0 0 0
7081 1 1 0 63.53677851999709 14.783977491700382 -1.6494615981281922 0 0 0
10003 1 2 0 63.10125705523143 16.256940011392235 -2.26541254500426 0 0 0
7145 1 1 0 62.21627290708481 17.499362998110637 -1.6391880718752572 0 0 0
9991 1 2 0 65.02740450396651 14.411662274589776 -2.2682001502983 0 0 0
7073 1 1 0 66.37889554662434 13.693233655559023 -1.643099253860852 0 0 0
13828 1 2 0 66.25503621157128 13.73278474018213 -6.319528494039487e-07 0 0 0
9990 1 2 0 67.82973041393045 14.345170800928125 -2.1311206176945046 0 0 0
7075 1 1 0 68.27730395735999 15.85879768525072 -1.6432995921103002 0 0 0
9994 1 2 0 69.73611266475186 16.35963800034694 -2.2379979746116154 0 0 0
9995 1 2 0 67.00707898464299 16.760783623611783 -2.218676729114698 0 0 0
7076 1 1 0 71.22632051953423 15.907938431861595 -1.649400973254865 0 0 0
9992 1 2 0 71.41261525279607 14.372560958132478 -2.228661012071404 0 0 0
7074 1 1 0 72.22321783542549 13.065987783959343 -1.643038549115233 0 0 0
9993 1 2 0 73.76076846751025 13.247350162111315 -2.1942703779843535 0 0 0
7085 1 1 0 75.18325805023565 12.635186392957044 -1.6454495524401174 0 0 0
9996 1 2 0 72.42576183284837 16.893802104182843 -2.2216511878166787 0 0 0
13840 1 2 0 75.24436880021672 12.585743262227309 -6.020596788684093e-07 0 0 0
10010 1 2 0 76.3648324395076 13.612754426875222 -2.254403053015498 0 0 0
7090 1 1 0 76.98671753187784 15.014617870202828 -1.6448804503451433 0 0 0
10018 1 2 0 76.14420954595005 16.317266340351363 -2.1960684428443527 0 0 0
10014 1 2 0 79.93251013391217 12.990642787650312 -2.2044463145544837 0 0 0
10016 1 2 0 78.51921072237654 15.208507728056897 -2.2077709493179087 0 0 0
7089 1 1 0 79.91451774777748 14.546713048594386 -1.6450998451797714 0 0 0
10017 1 2 0 81.09724379895329 15.510422916261975 -2.262347506021567 0 0 0
13845 1 2 0 76.961515491346 14.962938451188226 -4.1864426306000265e-07 0 0 0
13844 1 2 0 80.00700554920317 14.539864630285553 -1.2860355740726401e-07 0 0 0
7098 1 1 0 82.32092015733781 16.438206246106635 -1.6469902591638892 0 0 0
10025 1 2 0 84.45219519971907 13.049084745630784 -2.2072921273452453 0 0 0
10029 1 2 0 83.70529381381968 15.724593042116748 -2.1986974219010036 0 0 0
7097 1 1 0 84.78028788986389 14.58844185586015 -1.6468621042896887 0 0 0
10030 1 2 0 86.22878942327816 15.117874898257034 -2.230182477816492 0 0 0
13852 1 2 0 84.77505764105918 14.545834614008832 -2.2744273236658012e-07 0 0 0
7102 1 1 0 87.68965633965048 15.64134853718251 -1.6477100499091004 0 0 0
10038 1 2 0 87.89878768532995 17.23538761389767 -2.173580470107807 0 0 0
7100 1 1 0 89.857600112087 13.3081834175059 -1.6445637634644534 0 0 0
10035 1 2 0 88.71423817633246 14.418824297778484 -2.1780299571425537 0 0 0
10036 1 2 0 91.28858290468725 13.977998501832547 -2.1802733001573595 0 0 0
7106 1 1 0 92.04171373571195 15.355118799097559 -1.645928065054303 0 0 0
10046 1 2 0 91.31292522170288 16.74632920329813 -2.190061307953767 0 0 0
13861 1 2 0 92.05134369732374 15.354242656709998 -1.425974798726113e-07 0 0 0
13857 1 2 0 87.74796748948631 15.67384416278074 -6.167075896317728e-08 0 0 0
10045 1 2 0 93.56677592528595 15.33226529417488 -2.260751854130996 0 0 0
7105 1 1 0 96.98851031936343 13.231989740328496 -1.6468627354627645 0 0 0
7107 1 1 0 95.07105555720221 15.596258876299956 -1.6469368985934814 0 0 0
10043 1 2 0 95.99766770238206 14.390959649019463 -2.249107643113498 0 0 0
10044 1 2 0 98.52535471314147 13.558528536450568 -2.186849155312 0 0 0
10047 1 2 0 95.70198056595142 16.991958822769263 -2.242787278234627 0 0 0
13860 1 2 0 96.96544216004965 13.196540347662514 -2.7486307231551897e-07 0 0 0
9850 1 2 0 102.51805232182672 12.486765199849831 -2.2473554644330327 0 0 0
7117 1 1 0 99.50168609703715 14.782588049673103 -1.6433517452060715 0 0 0
9852 1 2 0 101.01718920533887 14.626517899372178 -2.263752701385897 0 0 0
6985 1 1 0 102.42089585124945 14.022991192259616 -1.652004694215004 0 0 0
9848 1 2 0 103.63914349211208 14.961223427775616 -2.268649409924265 0 0 0
10062 1 2 0 98.92854659386373 16.23938289497707 -2.1700436732492685 0 0 0
7181 1 1 0 99.20983666805627 17.785595652187673 -1.6489729818189773 0 0 0
9841 1 2 0 8.323547775570244 17.897550968714558 -2.307635958038294 0 0 0
10077 1 2 0 11.867859227811998 20.220189307368138 -2.2870491044936365 0 0 0
7128 1 1 0 12.568922289804128 18.88082263406534 -1.6478230750917984 0 0 0
7129 1 1 0 8.297734798547166 22.06354161332841 -1.647298487841874 0 0 0
10079 1 2 0 9.835045063921767 22.022179789651954 -2.229845150975746 0 0 0
7130 1 1 0 11.313024291768183 21.624434154075473 -1.6437448812657243 0 0 0
10081 1 2 0 12.32617818813435 22.766349236507295 -2.233842633966017 0 0 0
9872 1 2 0 7.62593266867181 20.659978234294435 -2.2493049135279746 0 0 0
13756 1 2 0 8.138315362778139 19.32955946888632 -2.8359011182841526e-07 1 0 0
13884 1 2 0 8.22124208409934 22.140141902112184 -9.533472337459822e-07 0 0 0
10078 1 2 0 14.069873080197693 18.62442646242017 -2.2689370077113784 0 0 0
7158 1 1 0 15.556189357178454 18.31621776534015 -1.6448273684813006 0 0 0
10121 1 2 0 16.527605679506536 19.49489069237393 -2.2429868343206483 0 0 0
10164 1 2 0 15.929809793051614 22.11102448803529 -2.2264886990698107 0 0 0
7187 1 1 0 16.968529594097465 20.952698845703395 -1.646289993043378 0 0 0
10163 1 2 0 18.491891610705103 21.10716113609426 -2.2299124395943073 0 0 0
10070 1 2 0 21.225222697091418 18.054159360842295 -2.231557609195973 0 0 0
10123 1 2 0 21.119282105766313 20.76975477671767 -2.2214474913959794 0 0 0
7159 1 1 0 21.92916230525246 19.44503478363968 -1.6476823024428031 0 0 0
10122 1 2 0 23.47226313608845 19.596474921639526 -2.22316895371175 0 0 0
7188 1 1 0 19.898182640329967 21.720172964350486 -1.647934938274973 0 0 0
10165 1 2 0 19.975093621397832 23.234279903913645 -2.298846918908565 0 0 0
10072 1 2 0 25.953182328328552 18.68795571790624 -2.1972661835391416 0 0 0
7160 1 1 0 24.99048893093977 19.932591484898058 -1.6474916185657493 0 0 0
10124 1 2 0 25.46289541005741 21.44039825672326 -2.2009302408216906 0 0 0
7191 1 1 0 26.17341647250561 22.850368043610374 -1.648119151566709 0 0 0
10169 1 2 0 27.72564788358602 22.883923345061536 -2.2223201682641807 0 0 0
13946 1 2 0 26.14095144204182 22.846815248786026 -9.424122704224794e-08 0 0 0
10129 1 2 0 29.988650982990826 21.513148061687094 -2.2068049448616907 0 0 0
7192 1 1 0 29.272530155135485 22.899634017877002 -1.6469242150154442 0 0 0
13947 1 2 0 29.292086863726524 22.915301966767935 -2.2155792595267614e-07 0 0 0
10073 1 2 0 30.55414885307228 18.85618161662621 -2.2012967610321974 0 0 0
7163 1 1 0 31.045219706338198 20.360805689180008 -1.646571845458695 0 0 0
10128 1 2 0 32.55721802308102 20.822641713885623 -2.1900654016451506 0 0 0
7165 1 1 0 33.88561211281444 21.680799106681135 -1.6481505990878096 0 0 0
10132 1 2 0 33.9656833303325 23.257418537938936 -2.1979958320501893 0 0 0
10130 1 2 0 35.22355037918859 20.888126636833427 -2.2297948946984727 0 0 0
13918 1 2 0 31.050165569434586 20.319556860346356 -1.8768610249431734e-07 0 0 0
10084 1 2 0 36.461968280154586 18.479156051382425 -2.222016838231024 0 0 0
7164 1 1 0 36.51506836649887 20.03191281417999 -1.6477423909945403 0 0 0
10131 1 2 0 37.90092538364635 20.741671055513486 -2.220572828651318 0 0 0
7196 1 1 0 39.42898143124271 21.007212423692636 -1.6463315500113391 0 0 0
13951 1 2 0 39.41094746035846 20.992354102389818 -1.5076224728567645e-07 0 0 0
10096 1 2 0 40.5021978418479 19.8976396570885 -2.2260090754489354 0 0 0
7140 1 1 0 41.302893832384555 18.579025372998 -1.6461151378896273 0 0 0
10177 1 2 0 39.950644368796226 22.455273937436168 -2.2331416812589797 0 0 0
13919 1 2 0 36.49885354240223 20.031061447141223 -3.046290909125079e-07 0 0 0
10094 1 2 0 42.841787110288124 18.588905691265794 -2.247048234066496 0 0 0
7139 1 1 0 44.376351245512325 18.732355001184903 -1.6467808142638931 0 0 0
10095 1 2 0 45.06734435324377 20.10924831408144 -2.2270660394334025 0 0 0
10135 1 2 0 45.02272547994692 22.720826373524744 -2.240078229487618 0 0 0
7167 1 1 0 45.85942892740091 21.43121741759842 -1.647676330760973 0 0 0
13922 1 2 0 45.88395040135828 21.433534953231003 -1.7299848281087306e-07 0 0 0
10133 1 2 0 47.402443425234225 21.492560543707157 -2.2461182673761666 0 0 0
10100 1 2 0 49.50110279961206 19.830348774488975 -2.193722457232851 0 0 0
7143 1 1 0 50.75084777464151 18.894498119093292 -1.6459482515156805 0 0 0
7166 1 1 0 48.93186792956527 21.280715632255014 -1.6460266054026438 0 0 0
10134 1 2 0 49.999476253876786 22.409161117685723 -2.2187418851935194 0 0 0
13898 1 2 0 50.794013211019426 18.872954911854624 -2.0695783298292366e-08 0 0 0
10099 1 2 0 52.18942335133983 19.516547629882048 -2.200468183034982 0 0 0
13921 1 2 0 48.86993466848252 21.32795987440883 -1.3125384161499698e-07 0 0 0
9973 1 2 0 54.27499155995926 17.927617083979325 -2.2546031517467666 0 0 0
7144 1 1 0 53.759901874889 19.380683191858516 -1.6538157033780487 0 0 0
10101 1 2 0 54.807066155816386 20.536921129590546 -2.2540427955562463 0 0 0
10137 1 2 0 53.815020590667004 22.82059086635234 -1.6354188026220873 0 0 0
7168 1 1 0 55.239905095508234 21.990868915305832 -1.5496781571391076 0 0 0
10136 1 2 0 56.43170905650485 22.935446438765887 -2.2362176729025753 0 0 0
7146 1 1 0 59.405071947189676 18.449640009514777 -1.6471329074235475 0 0 0
10104 1 2 0 59.38206095438935 19.9940034644159 -2.24255540383495 0 0 0
10138 1 2 0 59.021798192039384 22.698904472748357 -2.20680569157135 0 0 0
7169 1 1 0 59.92557552504426 21.44428844995991 -1.6482024592918347 0 0 0
10103 1 2 0 62.83853276043515 18.939532674283257 -2.1455316193134033 0 0 0
7149 1 1 0 64.19765131318147 19.72447445852257 -1.6412017176506177 0 0 0
10139 1 2 0 61.427784258732714 21.717039293069398 -2.2758855107823686 0 0 0
7206 1 1 0 62.83975751411244 22.25994924738023 -1.6443242614704792 0 0 0
10108 1 2 0 64.08151385550663 21.286353413055746 -2.170444181235878 0 0 0
13924 1 2 0 59.91987062094686 21.418882009874302 -2.2846066496451043e-07 0 0 0
13904 1 2 0 64.30732827665432 19.712239883754094 -1.0764628161716974e-06 0 0 0
13901 1 2 0 59.4364630136458 18.52543804607643 -1.7157385959267757e-08 0 0 0
10106 1 2 0 65.47789670221236 18.974497022118246 -2.349139457685163 0 0 0
7148 1 1 0 66.77749559010302 18.276521155360612 -1.6307332865787885 0 0 0
10107 1 2 0 68.16318069075722 19.055063537432776 -2.0641812318071433 0 0 0
7173 1 1 0 68.46341779953437 20.60968090594588 -1.6337796765557275 0 0 0
10145 1 2 0 67.16532135153494 21.512344040513607 -2.1763887544769145 0 0 0
7209 1 1 0 67.06452688194943 23.080334750443306 -1.630502774305718 0 0 0
10144 1 2 0 69.92735588056865 20.91908690847258 -2.3053725427909035 0 0 0
13964 1 2 0 66.86241712993596 23.145959270020306 -2.16950411256381e-07 0 0 0
7174 1 1 0 71.43891821141058 20.808820676395857 -1.6461634286955125 0 0 0
7150 1 1 0 73.15033526420608 18.27690160344957 -1.6494321078172045 0 0 0
10109 1 2 0 74.70115149960318 18.47283432848462 -2.209981228813321 0 0 0
10110 1 2 0 72.26664205698242 19.52939877323797 -2.259445062383487 0 0 0
10146 1 2 0 72.19244679768768 22.16108298489878 -2.183327189947149 0 0 0
7151 1 1 0 76.14714404940824 17.878281757365883 -1.645975065416357 0 0 0
10200 1 2 0 76.11567696064812 23.317197549423852 -2.2208146325780387 0 0 0
10111 1 2 0 77.49717216292308 18.66433990596073 -2.2179139823152973 0 0 0
7175 1 1 0 78.53106953536673 19.84191817610805 -1.6494754992371685 0 0 0
10147 1 2 0 80.09730513617976 19.67991839166175 -2.203244899407848 0 0 0
10148 1 2 0 77.87193180865657 21.243182556968446 -2.2422895293653644 0 0 0
7212 1 1 0 77.56288584391375 22.745172188563817 -1.6452537677679544 0 0 0
13906 1 2 0 76.17723820461478 17.949857866730394 -2.0358231067371885e-07 0 0 0
13930 1 2 0 78.56517445221753 19.83023103815864 -9.14082160632462e-08 0 0 0
10031 1 2 0 82.2032012571748 17.99437029966358 -2.21246139988354 0 0 0
7176 1 1 0 81.66323735631228 19.46670925458129 -1.648445967215496 0 0 0
10149 1 2 0 82.7174477103975 20.64277453723365 -2.1996608319124937 0 0 0
7217 1 1 0 83.76160396072605 21.8312195324228 -1.6472285229910568 0 0 0
10208 1 2 0 85.32842087648116 21.626795950161274 -2.184431669982031 0 0 0
10209 1 2 0 83.24115611536749 23.305351155732946 -2.2193049264263527 0 0 0
7218 1 1 0 86.91513717175982 21.63016484995828 -1.6486299788110659 0 0 0
13973 1 2 0 86.96594888612628 21.647735740003355 -7.409873919601202e-07 0 0 0
10120 1 2 0 87.55883837567072 20.160611620649252 -2.183075375891723 0 0 0
10210 1 2 0 87.6938670478306 23.051294616277893 -2.1708803666350525 0 0 0
7156 1 1 0 91.33273064758585 18.316169142261028 -1.645179888853895 0 0 0
7157 1 1 0 88.36500739019174 18.777825966417073 -1.6443832098434468 0 0 0
10118 1 2 0 89.92536781397904 19.013099645350312 -2.175084376806864 0 0 0
10119 1 2 0 92.62837130423623 19.16593193239009 -2.2384090450080127 0 0 0
13912 1 2 0 88.24018011321137 18.764963943507446 -8.346021019573629e-08 0 0 0
13911 1 2 0 91.38836168753572 18.335085962053046 -2.055265136358629e-07 0 0 0
7177 1 1 0 96.33405461349395 18.394860260804457 -1.645643249350052 0 0 0
10151 1 2 0 97.88692868781438 18.64673943968763 -2.1872764199108556 0 0 0
7178 1 1 0 93.87115237041616 20.100907475242778 -1.648878488432524 0 0 0
10150 1 2 0 95.34832557818748 19.595207503363778 -2.201318469116142 0 0 0
10152 1 2 0 93.75238731218715 21.624718613358016 -2.2613288827222826 0 0 0
7220 1 1 0 93.74409842973203 23.149895375147995 -1.6448416349823607 0 0 0
13932 1 2 0 96.32777166151345 18.360259417848667 -2.8236975162403475e-07 0 0 0
13933 1 2 0 93.82297910006407 20.09553952150282 -7.701536085797099e-08 0 0 0
10156 1 2 0 100.67963348906615 18.283676970175083 -2.2658401565612776 0 0 0
7184 1 1 0 101.65340821279517 19.452559978606217 -1.5921334643893774 0 0 0
10088 1 2 0 103.12031828576643 19.78144017626978 -2.3056788433109676 0 0 0
10160 1 2 0 100.73969140506281 20.80990949001697 -1.8408852641706115 0 0 0
7221 1 1 0 101.2212516462642 22.35111541908492 -1.5928376331782756 0 0 0