LAMMPS data file via write_data, version 2 Aug 2023, timestep = 176, units = metal

15504 atoms
2 atom types

6.445387940644772 198.51649631062796 xlo xhi
6.909254765470401 169.14793166678652 ylo yhi
-100 100 zlo zhi

Masses

1 28.085
2 15.999

Atoms # full

9221 1 2 0 6.968482222175581 7.381451327165715 -2.221857802831741 1 0 0
9238 1 2 0 10.931734982744832 7.453490952495716 -2.2930891571952614 0 0 0
6574 1 1 0 11.132618825046857 8.937688663534665 -1.6309594754358907 0 0 0
9224 1 2 0 7.847824258774441 11.50383881417271 -2.2268658088608473 0 0 0
9236 1 2 0 10.005199153200481 9.943739109132318 -2.2786024849027497 0 0 0
6573 1 1 0 9.366084008537264 11.320396942220107 -1.647485985375266 0 0 0
9237 1 2 0 10.213268601741616 12.592608590612635 -2.2632651429859427 0 0 0
13033 1 2 0 9.378749013986386 11.272480377413572 -3.110269233216934e-07 0 0 0
9239 1 2 0 12.610247893512756 9.527865836090792 -2.0450896270290415 0 0 0
9553 1 2 0 14.51556118755493 7.647382018738799 -2.298526371551324 0 0 0
6780 1 1 0 14.155365265849802 9.130009114757195 -1.6281603139482328 0 0 0
9552 1 2 0 15.0152888936919 10.447525476933933 -2.2180427508631566 0 0 0
6781 1 1 0 14.751423244026507 11.96883789863318 -1.5700483853684504 0 0 0
13240 1 2 0 14.402151145774347 8.961487494061855 -4.355685118726267e-08 0 0 0
6789 1 1 0 18.308942487839975 7.1118014753443655 -1.5035341124145676 0 0 0
9564 1 2 0 18.16959772478225 8.572579913467967 -2.316310318368179 0 0 0
9569 1 2 0 21.11350964401505 7.7726528800518375 -2.1255046235379624 0 0 0
6787 1 1 0 18.315148090535896 10.014844541192984 -1.4933228974467105 0 0 0
9563 1 2 0 17.96734271312321 11.412064898927685 -2.325395227547484 0 0 0
9565 1 2 0 19.92284193621311 10.18131804040307 -1.276828913217987 0 0 0
6790 1 1 0 21.252308885974596 9.293694776626474 -1.491599848370894 0 0 0
9568 1 2 0 22.127309412857304 10.311806367074118 -2.4365267158472803 0 0 0
13249 1 2 0 19.01451497786264 7.381439898360463 -4.826543852871423e-07 0 0 0
6791 1 1 0 23.332269691943864 10.971671400130294 -1.5264971809430654 0 0 0
13250 1 2 0 21.989264229976246 9.083871077217546 2.1199791427398593e-07 0 0 0
9582 1 2 0 26.05596991395828 7.777072702790575 -2.2732594748059634 0 0 0
6798 1 1 0 25.884707971909616 9.230056538140914 -1.4980800394321143 0 0 0
9571 1 2 0 24.307431729780383 9.64571539151521 -1.4384895818011976 0 0 0
9583 1 2 0 26.54196805693866 10.604758692735828 -2.131744002616187 0 0 0
6805 1 1 0 28.083137474492066 10.928528356812203 -1.6116474867033967 0 0 0
9592 1 2 0 28.25916506547634 12.481749079506793 -2.2065137923009726 0 0 0
13265 1 2 0 28.4683290002287 11.055824907982359 -8.527072595911523e-07 0 0 0
9570 1 2 0 23.742063516693154 12.344327421911622 -2.3037020175269562 0 0 0
9594 1 2 0 28.767863533422823 9.493584041033312 -2.140979256322537 0 0 0
13258 1 2 0 26.56556605382579 9.019354748670265 -3.861740093319645e-08 0 0 0
6809 1 1 0 30.14942836061566 8.705155372089301 -1.6277374852488378 0 0 0
9598 1 2 0 31.2318708762366 9.938467507406632 -2.119497222197264 0 0 0
6807 1 1 0 31.745902230723132 11.486412583454678 -1.6430833337289972 0 0 0
9599 1 2 0 33.281947720526716 11.502730561779394 -2.2452467672728114 0 0 0
6812 1 1 0 34.562503621726854 10.69823216564486 -1.641837703327398 0 0 0
13267 1 2 0 31.573712763456104 11.530443564597563 -2.7718277810122194e-07 0 0 0
9601 1 2 0 30.09366248435804 7.065279435700592 -2.164506503019307 0 1 0
9606 1 2 0 34.60748342582778 9.16548118845349 -2.2477090077810997 0 0 0
13272 1 2 0 34.49139950948247 10.706519662513315 -1.392278936013009e-07 0 0 0
6817 1 1 0 35.678454659212996 8.0846286926558 -1.6415531093198918 0 0 0
9612 1 2 0 37.19946317183616 8.155369759327115 -2.2560866798399846 0 0 0
6816 1 1 0 38.6996767226477 8.405844100701371 -1.6477681683167058 0 0 0
9613 1 2 0 39.739134238770475 7.259088295625921 -2.220447789673834 0 0 0
9603 1 2 0 35.910986053764326 11.423838294642785 -2.218479262184624 0 0 0
6815 1 1 0 39.23065985053347 11.358276147535245 -1.633506568717829 0 0 0
9610 1 2 0 39.078922995569066 9.869984352850837 -2.29219109309625 0 0 0
9605 1 2 0 38.22454683488153 12.547509319127084 -2.195359884340797 0 0 0
13275 1 2 0 39.085812048303445 11.251369762129107 -6.533927806183539e-08 0 0 0
9611 1 2 0 40.7300233968886 11.777999622921214 -2.118827900385155 0 0 0
9622 1 2 0 42.303479946341646 7.947098889533399 -2.221147853835813 0 0 0
6822 1 1 0 43.76899797753638 8.434508141576933 -1.649088931619265 0 0 0
9623 1 2 0 44.88570953990242 7.357091671011472 -2.215192545764363 0 0 0
6821 1 1 0 43.94780470542349 11.428418940766688 -1.5537868350572475 0 0 0
9620 1 2 0 43.95567934386804 9.95303256896904 -2.293579825163115 0 0 0
9621 1 2 0 45.487834889570294 11.979060852840721 -1.6240010684861648 0 0 0
9616 1 2 0 43.07337435279012 12.673523477994065 -2.2336650788159096 0 0 0
9630 1 2 0 47.48505832729706 7.685102158426546 -2.2007357944007118 0 0 0
6827 1 1 0 48.51406262870522 8.881349940617254 -1.6454286107689478 0 0 0
9631 1 2 0 50.012304194878396 8.451177174649446 -2.2017090094457226 0 0 0
6835 1 1 0 51.21732610229477 7.4767055965459654 -1.6459505948872242 0 0 0
9628 1 2 0 48.26635221020519 10.441651805909661 -2.2028436703020144 0 0 0
6826 1 1 0 48.601643113190114 11.992106258130649 -1.655419604508866 0 0 0
13287 1 2 0 48.432890727489685 8.900672929736444 -5.704785904391869e-07 0 0 0
9629 1 2 0 50.077941411832555 12.521552442020955 -2.194897683809224 0 0 0
13286 1 2 0 48.56243414915614 11.962669785269146 -4.3779955659506044e-07 0 0 0
9642 1 2 0 52.6374233414415 8.077577913163232 -2.2402983406173256 0 0 0
6834 1 1 0 53.91412841243474 8.939105657702825 -1.6485421698979146 0 0 0
9643 1 2 0 55.264434362726206 8.191586580067073 -2.2488627179022154 0 0 0
6843 1 1 0 56.78258347653926 7.975221582170788 -1.6434552931476174 0 0 0
9640 1 2 0 53.858832276271144 10.489702524052303 -2.2219456302558958 0 0 0
6833 1 1 0 53.925992699346544 12.035340415548564 -1.6459204460220016 0 0 0
13294 1 2 0 53.903414418836086 8.947889858261824 -6.279871906590617e-08 0 0 0
13303 1 2 0 56.70096570500981 7.946422662243169 -1.8246882428808233e-07 0 0 0
9655 1 2 0 57.729064910142775 9.220533562658852 -2.1769375050427513 0 0 0
9656 1 2 0 60.27225900262118 8.373514817665846 -2.241117848928512 0 0 0
6849 1 1 0 61.68777048661017 7.779483570973656 -1.647936811494397 0 0 0
6842 1 1 0 59.26287396865882 9.526048660490511 -1.6440461601614227 0 0 0
9653 1 2 0 59.74090374949881 10.99096716198526 -2.2221721645869934 0 0 0
6841 1 1 0 59.34213610755434 12.484643226203879 -1.6466331878697984 0 0 0
9665 1 2 0 62.897093499233826 8.724706632608473 -2.2522724496486908 0 0 0
13309 1 2 0 61.72211654715169 7.762668033211771 -3.4769941241140804e-07 0 0 0
9666 1 2 0 65.51026782584316 8.298794876429982 -2.1738347145525547 0 0 0
6875 1 1 0 67.06442205573798 8.154583215163475 -1.6428448208994217 0 0 0
6848 1 1 0 64.31163941433788 9.290012741744267 -1.6426367163393119 0 0 0
9663 1 2 0 64.63205819665278 10.784813087073935 -2.249912896995244 0 0 0
9704 1 2 0 68.0031844246606 9.371641270437868 -2.242988047671308 0 0 0
9700 1 2 0 68.09397053282265 12.077064351039175 -2.246620750380202 0 0 0
13308 1 2 0 64.2560943173102 9.335244396110168 -9.762020878847402e-07 0 0 0
6847 1 1 0 64.44545031917939 12.303041863948721 -1.6453121714882892 0 0 0
13307 1 2 0 64.42457876109303 12.292712711315419 -1.5557915842638787e-07 0 0 0
6886 1 1 0 73.42696434016699 8.031272661866026 -1.642351008254291 0 0 0
6874 1 1 0 68.78310531239832 10.701571474233985 -1.6477809165578456 0 0 0
9705 1 2 0 70.31451093152332 10.660201682862109 -2.2367418593356554 0 0 0
6879 1 1 0 71.8491601540612 10.6971171983693 -1.6478046777790414 0 0 0
9713 1 2 0 72.56460353310902 9.318374549948253 -2.2284840745198795 0 0 0
9710 1 2 0 72.53269294093843 12.092439968153611 -2.2327938635690336 0 0 0
13346 1 2 0 73.31838401973184 8.030807420102986 -9.63520462773559e-07 0 0 0
13339 1 2 0 71.88533243620095 10.705834584595149 -2.156297966794759e-07 0 0 0
13334 1 2 0 68.75968973771752 10.704698676233399 -5.017675161527846e-07 0 0 0
9722 1 2 0 74.98931666913987 8.171090928515834 -2.172684069494295 0 0 0
9723 1 2 0 77.58156211334668 8.919750715354096 -2.222533357930129 0 0 0
6892 1 1 0 78.59164732514051 7.749648623707784 -1.6459250104346272 0 0 0
6885 1 1 0 76.08514029347734 9.279726364090237 -1.6435422967338718 0 0 0
9720 1 2 0 75.65708472789917 10.753746872339736 -2.239932251912474 0 0 0
6884 1 1 0 76.07220702442235 12.231502615959279 -1.642993998702192 0 0 0
13352 1 2 0 78.62374730021067 7.7322138435524685 -6.464238280422019e-07 0 0 0
9721 1 2 0 77.54068809888848 12.645124783605105 -2.2466941498103576 0 0 0
13345 1 2 0 76.09526433374238 9.30380470429309 -2.0739049804183807e-07 0 0 0
9732 1 2 0 80.10434099993938 8.083684527592588 -2.22535077122394 0 0 0
9733 1 2 0 82.66951593134714 8.937290354418337 -2.2316406802930477 0 0 0
6902 1 1 0 83.95873545937778 8.098493780136032 -1.6462335964897654 0 0 0
9749 1 2 0 85.31703979016439 8.81568778229295 -2.2489984283327797 0 0 0
6891 1 1 0 81.16168968508309 9.214980387699262 -1.646336164703666 0 0 0
9730 1 2 0 80.7302770563743 10.700469576164394 -2.223286112777872 0 0 0
6890 1 1 0 81.18206647597113 12.173590427684138 -1.6467342802265612 0 0 0
9731 1 2 0 82.67016850580698 12.607795970762469 -2.224921926909847 0 0 0
9750 1 2 0 87.91211606325153 9.629784783914648 -2.2153535984921144 0 0 0
6910 1 1 0 89.01422212255548 8.55424002303517 -1.6422390515616363 0 0 0
9764 1 2 0 88.46701523989698 7.089926595487972 -2.1577962085060873 0 0 0
9762 1 2 0 90.51540309123692 8.920799879630883 -2.2338488274683974 0 0 0
6901 1 1 0 86.39167291046037 9.914631232504545 -1.6462333443246242 0 0 0
9747 1 2 0 86.04746181279678 11.408118358237196 -2.2377170596410707 0 0 0
9760 1 2 0 90.9585496762814 11.536804362782574 -2.1736369481568802 0 0 0
13370 1 2 0 89.0748453357369 8.584309482094467 3.921010715158546e-08 0 0 0
6916 1 1 0 94.47946090902455 9.348282342481115 -1.6443270663829008 0 0 0
9772 1 2 0 94.80345787181425 7.842148143014813 -2.2189500447365553 0 0 0
6909 1 1 0 91.53797340578042 10.0821598326606 -1.6462768498653348 0 0 0
9763 1 2 0 93.04474669921093 9.856978778030058 -2.2743339119233066 0 0 0
9672 1 2 0 95.67332399533106 10.334576055077648 -2.2077850719889223 0 0 0
13376 1 2 0 94.43347831463572 9.349343461494698 -2.0734603217156395e-07 0 0 0
13369 1 2 0 91.60804009200754 10.034688157639733 -2.5318398372083186e-07 0 0 0
6853 1 1 0 99.18689977436486 8.309287842692965 -1.6477401464796397 0 0 0
9671 1 2 0 98.28643414071779 9.542046934914934 -2.269855707806663 0 0 0
6469 1 1 0 102.24911211987192 8.753204864393236 -1.646122204046839 0 0 0
9062 1 2 0 100.71374178114165 8.527417843313614 -2.2294321723606454 0 0 0
6851 1 1 0 97.20577743211996 10.603261811400506 -1.6443197860120649 0 0 0
9668 1 2 0 97.67858855672793 12.097103602690895 -2.1759522744287714 0 0 0
13311 1 2 0 97.2188261593156 10.50486492986655 -3.212176118905615e-07 0 0 0
9674 1 2 0 98.50836841423754 6.919989067415106 -2.2238873731491307 0 1 0
6583 1 1 0 10.319384657675192 14.106560407435532 -1.6388134660390636 0 0 0
9250 1 2 0 9.11062108398723 15.096677581151924 -2.171936187796653 0 0 0
9252 1 2 0 11.713241468221756 14.783465982870116 -2.1778519222924904 0 0 0
9248 1 2 0 7.600202452025175 17.265358194075652 -2.198654487378773 0 0 0
6582 1 1 0 9.032541030715128 16.666831341310285 -1.645672962297805 0 0 0
9251 1 2 0 10.320045552494648 17.525292127286527 -2.2351623769500124 0 0 0
9555 1 2 0 16.038728311744144 12.998499912300785 -1.6798613905176818 0 0 0
9554 1 2 0 13.56201828670047 12.889937928870731 -2.271197915282327 0 0 0
6782 1 1 0 13.221501495604818 14.402859740866328 -1.6518488620704317 0 0 0
9556 1 2 0 14.124349794891366 15.627691032731098 -2.2694944645881914 0 0 0
6858 1 1 0 15.133802095396069 16.76864303962631 -1.64640581453999 0 0 0
9575 1 2 0 16.61215495337188 16.38255843499008 -2.2389546362999613 0 0 0
9379 1 2 0 14.740105657970874 18.26749290018524 -2.217788103635463 0 0 0
6788 1 1 0 17.678219685255844 12.8672370879471 -1.5639693444316918 0 0 0
13242 1 2 0 13.33606102041327 14.395231410292487 2.6124156704677453e-07 0 0 0
6793 1 1 0 18.03633988150226 15.81397035301454 -1.6495382385275934 0 0 0
9566 1 2 0 18.30785277318971 14.260182867718672 -2.2243984726558494 0 0 0
9574 1 2 0 19.11322796677669 16.922379288711433 -2.216015888353266 0 0 0
6794 1 1 0 22.835929517447504 16.41631828944353 -1.5919943656647852 0 0 0
9576 1 2 0 21.63016018407566 17.332643856805916 -2.2630585403331853 0 0 0
6795 1 1 0 20.23004561495061 18.001042730728525 -1.6495903482880967 0 0 0
9572 1 2 0 23.18064439586338 14.92633470508983 -2.2407546756713748 0 0 0
13248 1 2 0 18.227111354239117 12.773829680740855 -1.380324761548621e-07 0 0 0
13253 1 2 0 18.05724193466318 15.754397730510975 -3.736988248899156e-07 0 0 0
13254 1 2 0 22.4672681977633 16.19548308166867 -3.069576449950989e-07 0 0 0
13255 1 2 0 20.251118892418962 18.04660073415728 -3.6882727284013916e-07 0 0 0
9573 1 2 0 25.771344358988646 13.835212097697518 -2.2510617099519488 0 0 0
6804 1 1 0 27.299918488143422 13.75561391749255 -1.6500845048874575 0 0 0
6792 1 1 0 24.23738264581642 13.778398260863494 -1.652600828326114 0 0 0
9593 1 2 0 27.86764407689343 15.191730250726271 -2.2020200778972385 0 0 0
9577 1 2 0 24.2209492910361 17.253120745518515 -1.865807904312894 0 0 0
9600 1 2 0 28.68548831612516 17.744078314291425 -2.234468838524441 0 0 0
6808 1 1 0 29.00398871842649 16.231985393533375 -1.6408375640788382 0 0 0
13252 1 2 0 24.30447744271084 13.878034913601939 -3.054549313150447e-08 0 0 0
9595 1 2 0 31.299141649448472 13.035015337995443 -2.184312107765337 0 0 0
9596 1 2 0 30.407012514919437 15.628449329203736 -2.2378993860219416 0 0 0
6806 1 1 0 31.56925700990144 14.610114775128773 -1.6459758347659939 0 0 0
9597 1 2 0 32.89925185963555 15.493302687569928 -2.1653348125648404 0 0 0
6814 1 1 0 33.59148474009336 16.928308876588563 -1.6447130805998913 0 0 0
9609 1 2 0 33.076433430055864 18.445220768025262 -2.1682252509346998 0 0 0
13268 1 2 0 29.058705791878367 16.295439751859412 -2.232455357461195e-07 0 0 0
13266 1 2 0 31.5914238795871 14.524753960307804 9.092176114600971e-09 0 0 0
6811 1 1 0 36.68135671543331 12.75660359850581 -1.6446778176958867 0 0 0
6813 1 1 0 36.208741140580905 15.605573447031837 -1.6313089248615709 0 0 0
9604 1 2 0 35.955037471807636 14.098466606127856 -2.2702075731518714 0 0 0
9608 1 2 0 37.77566945539606 15.942751070664595 -2.020657697374931 0 0 0
9607 1 2 0 35.15820724883159 16.75146756697839 -2.1986163332488484 0 0 0
6820 1 1 0 38.57776951169916 17.334531805440186 -1.6212247726437292 0 0 0
9617 1 2 0 40.122049748055154 17.08673801457865 -2.2291853265854265 0 0 0
13271 1 2 0 36.6205168896095 12.79332802512898 4.886592969260305e-07 0 0 0
13280 1 2 0 38.7260343004691 17.59647156674752 -1.4725898688268976e-07 0 0 0
6818 1 1 0 41.58175057246499 13.085605100775878 -1.632968274544813 0 0 0
6819 1 1 0 41.23142428200923 15.980031841533398 -1.6471495337896194 0 0 0
9615 1 2 0 40.87079960124112 14.45661126423036 -2.220009298911061 0 0 0
9618 1 2 0 42.77330518104975 16.184849487817342 -2.2178715235849378 0 0 0
6825 1 1 0 44.31496738929188 15.977031842393384 -1.6465279846909686 0 0 0
9625 1 2 0 45.1812146073429 14.680343602635938 -2.2558564775141132 0 0 0
9627 1 2 0 45.04177156770612 17.32206422065168 -2.2306111046596753 0 0 0
6824 1 1 0 46.125075520789885 13.506364372293591 -1.5536653180032216 0 0 0
9626 1 2 0 47.590292923176406 13.179732290144377 -2.2647782048072354 0 0 0
6829 1 1 0 51.25880917741695 13.539464602893679 -1.6447967912414194 0 0 0
9633 1 2 0 51.15389131283852 15.093498900960727 -2.2224181473822244 0 0 0
9635 1 2 0 49.95538129012868 17.456072274216996 -2.233784866552882 0 0 0
6830 1 1 0 51.28010911991937 16.64414726977282 -1.648614544516194 0 0 0
9637 1 2 0 47.38416902814936 18.350968809245867 -2.227393764920032 0 0 0
9634 1 2 0 52.655677202039385 12.896232555764282 -2.2346971586657083 0 0 0
9641 1 2 0 55.26685179681868 12.783372137379894 -2.2462375910290726 0 0 0
6838 1 1 0 56.53974678005521 13.631874533505528 -1.6465273831430478 0 0 0
9648 1 2 0 56.53548846084881 15.171729189057583 -2.2304410301042585 0 0 0
9636 1 2 0 52.66569379830063 17.374892727144413 -2.213940464530375 0 0 0
9650 1 2 0 55.38732641347871 17.531281637268474 -2.223996138164853 0 0 0
6839 1 1 0 56.69348616036964 16.704104606317525 -1.6465643740363851 0 0 0
6840 1 1 0 53.98906184199783 18.199422189227022 -1.6463391076897202 0 0 0
13300 1 2 0 53.977064921971554 18.175852824073488 -1.4966842336306398e-07 0 0 0
13298 1 2 0 56.518911888347006 13.6458136099661 -4.784456498726716e-08 0 0 0
9649 1 2 0 57.875997153818595 12.891159340559957 -2.2540404895564627 0 0 0
9654 1 2 0 60.4454489435638 13.557804706165319 -2.2295157711016707 0 0 0
6844 1 1 0 61.93811079906629 13.93143588822104 -1.6450554197224878 0 0 0
9658 1 2 0 62.371745231502736 15.39712134082618 -2.2295644236040473 0 0 0
9651 1 2 0 58.10655458016025 17.346523320449034 -2.232436390125955 0 0 0
9660 1 2 0 60.83967121471605 17.543599262223193 -2.245229438366402 0 0 0
6845 1 1 0 62.24761156885263 16.928511292870173 -1.6464650237928513 0 0 0
6846 1 1 0 59.42586779983068 18.156166217904104 -1.64577715977123 0 0 0
13306 1 2 0 59.42298859173772 18.098459637943265 -2.6996056626703593e-07 0 0 0
13304 1 2 0 61.93509187126889 13.93501504933097 -6.606812660036585e-07 0 0 0
9659 1 2 0 63.021318124499025 12.853375997319326 -2.248528429995056 0 0 0
9664 1 2 0 65.67678348430253 13.256452939484197 -2.1904148701510513 0 0 0
6871 1 1 0 67.2375104435653 13.34888441710133 -1.6443300797117057 0 0 0
9699 1 2 0 67.8957209779609 14.755147942181182 -2.208002382044174 0 0 0
9661 1 2 0 63.581705099450275 17.70448876297678 -2.2407723245417883 0 0 0
9701 1 2 0 66.18200682505679 16.781210847442193 -2.2145933104840974 0 0 0
6872 1 1 0 67.66367129903875 16.29729530780461 -1.6478973361657714 0 0 0
6873 1 1 0 65.11289824254736 17.905098613217074 -1.6436002062925208 0 0 0
6878 1 1 0 73.37540110204499 13.390742159076092 -1.6417128533622425 0 0 0
9711 1 2 0 72.84844397994861 14.838018172287013 -2.233972485105015 0 0 0
9702 1 2 0 68.87830293104471 17.252978589315475 -2.2372739786083464 0 0 0
9714 1 2 0 71.55704361494303 17.081782348201237 -2.2307808875039226 0 0 0
6880 1 1 0 72.92872868301257 16.387252998162886 -1.6481394374692906 0 0 0
13340 1 2 0 72.96881238071055 16.392115013462487 -6.646346412181522e-07 0 0 0
6881 1 1 0 70.27061846722496 17.925853657665503 -1.6468738582148834 0 0 0
9712 1 2 0 74.94341084642936 13.308585449332583 -2.162742588495174 0 0 0
6887 1 1 0 78.64671157051421 13.70748213927172 -1.6456780630869459 0 0 0
9725 1 2 0 78.30746522996549 15.183671148149713 -2.2579962686936943 0 0 0
9715 1 2 0 74.23586476924038 17.231452319837125 -2.2264375908472247 0 0 0
9727 1 2 0 76.91184627756178 17.358342678295706 -2.2441675869057205 0 0 0
6888 1 1 0 78.29182940763772 16.704209557979397 -1.647776813941207 0 0 0
9728 1 2 0 79.61540203014117 17.467504367672593 -2.2639654853433937 0 0 0
6889 1 1 0 75.54851599963564 18.056203087588287 -1.6458432554846834 0 0 0
13347 1 2 0 78.63492174252433 13.734516277902287 -8.78937519883091e-08 0 0 0
13348 1 2 0 78.30111068204297 16.74039781680265 -3.099167857258385e-07 0 0 0
9726 1 2 0 80.11874961370529 13.281760046052993 -2.2316755015782994 0 0 0
9743 1 2 0 85.09383091420602 13.824923104843172 -2.2172218147151224 0 0 0
6897 1 1 0 83.55947746558564 13.869920264173182 -1.6428979396780512 0 0 0
9742 1 2 0 82.96608848073207 15.304953834338635 -2.192690836725371 0 0 0
9744 1 2 0 82.33858159188331 17.81918013902982 -2.2521176677336707 0 0 0
6898 1 1 0 83.46092834980453 16.779431701971333 -1.6446821712634032 0 0 0
9745 1 2 0 84.9898186745971 17.167700935813244 -2.1644880499798864 0 0 0
6899 1 1 0 80.88588599948096 18.304617154179095 -1.6424326305937782 0 0 0
6900 1 1 0 86.33542877922699 12.915239249929451 -1.6442527213753284 0 0 0
9748 1 2 0 87.69309560823585 13.600750328370934 -2.2620383720174853 0 0 0
9756 1 2 0 90.2608809365339 14.127318065720047 -2.2353125905307225 0 0 0
6905 1 1 0 88.81444413659817 14.63865591492862 -1.646705509455512 0 0 0
9755 1 2 0 88.5781863513889 16.155766367876907 -2.2318593175726043 0 0 0
6906 1 1 0 88.73181296646021 17.693184581810755 -1.6477764349905921 0 0 0
9758 1 2 0 90.13394105556303 18.357218341385842 -2.2310025723614775 0 0 0
9757 1 2 0 87.3909332653914 18.499854954791388 -2.215909283750162 0 0 0
13360 1 2 0 86.41608734458592 12.880998137902123 -7.027494607941706e-07 0 0 0
13366 1 2 0 88.77123395492775 17.712987831550407 -1.9591925751518172e-07 0 0 0
13365 1 2 0 88.77775845965282 14.651036190471167 -1.9547016480137732e-07 0 0 0
6908 1 1 0 91.34510445763708 13.049420180519535 -1.6439691262173202 0 0 0
9761 1 2 0 92.79634143212112 13.47815790917221 -2.2785937657872983 0 0 0
9670 1 2 0 95.36205640692 13.374903946198003 -2.175921378107552 0 0 0
6913 1 1 0 94.08631923163891 14.263315486082229 -1.6426907652250766 0 0 0
9768 1 2 0 94.18320926641033 15.787641941297386 -2.2491474146662886 0 0 0
6914 1 1 0 94.22935397873081 17.317892511548788 -1.646415745242212 0 0 0
9769 1 2 0 92.86708279987118 18.051449981656774 -2.228114471499831 0 0 0
9770 1 2 0 95.61976670093618 18.016142162564197 -2.210439180339267 0 0 0
13368 1 2 0 91.36959950089744 13.084295389227657 -1.3939418931790966e-07 0 0 0
13374 1 2 0 94.2238252380263 17.34750130948784 -1.1597667681070247e-07 0 0 0
6850 1 1 0 96.91598754778094 13.459788629975705 -1.6408388467071677 0 0 0
9060 1 2 0 102.15609161378315 13.270134909197902 -2.1673314148903446 0 0 0
9669 1 2 0 97.57934714776661 14.824271552501846 -2.2619999646927598 0 0 0
6852 1 1 0 98.74344146527528 15.824068999710613 -1.647723929935396 0 0 0
9243 1 2 0 100.14895111044082 15.158584233841976 -2.215546590421313 0 0 0
6577 1 1 0 101.67205620891876 14.807584714165422 -1.6465978109333985 0 0 0
9673 1 2 0 98.31591957185331 17.345858190646975 -2.1844819610162154 0 0 0
6919 1 1 0 97.13446526403985 18.401279169369314 -1.6469318053101427 0 0 0
13037 1 2 0 101.73709572005471 14.770441291324206 -7.58969207126184e-07 0 0 0
6623 1 1 0 10.8333932621572 18.982941902713414 -1.6384812368810484 0 0 0
9311 1 2 0 9.644038911287737 20.04077094340913 -2.090813188838612 0 0 0
9309 1 2 0 7.937180104580621 22.072909335215453 -2.2366622825126634 0 0 0
6622 1 1 0 9.41912366826888 21.611905762210103 -1.632801328632145 0 0 0
9312 1 2 0 10.757801545266148 22.39552542734204 -2.2217551884867652 0 0 0
6662 1 1 0 11.817332581142022 23.541444290898653 -1.6475338314316677 0 0 0
13122 1 2 0 11.865965254879997 23.54447506927909 -2.856180301567421e-07 0 0 0
13083 1 2 0 10.976681437776167 18.93856225370765 -2.6085780394319564e-07 0 0 0
13082 1 2 0 9.372155502912856 21.814833537132525 8.839898315601845e-08 0 0 0
9313 1 2 0 12.309784128548904 19.387035469411618 -2.261245177166824 0 0 0
6666 1 1 0 13.84730230812723 19.534113054300303 -1.647895164908133 0 0 0
9378 1 2 0 14.561655529492496 20.92146075422581 -2.1994815716140326 0 0 0
6667 1 1 0 14.74503152555185 22.478529772450667 -1.6458956375550255 0 0 0
9380 1 2 0 16.230242004395866 23.04102947937811 -2.1946508740634347 0 0 0
9372 1 2 0 13.392441688248281 23.325533502148648 -2.182778909862601 0 0 0
13127 1 2 0 14.778396900116741 22.55292533560847 -1.257920419281248e-07 0 0 0
6967 1 1 0 17.79301276587237 23.36491844048431 -1.6488056642354352 0 0 0
9578 1 2 0 19.922687337341745 19.557900290020655 -2.184868348398226 0 0 0
6924 1 1 0 20.101007002242632 21.145158300436492 -1.64824449885535 0 0 0
9784 1 2 0 18.90113516396117 22.20047307353884 -2.1826074005265146 0 0 0
9783 1 2 0 21.600701903019978 21.668375167554206 -2.1898103631527563 0 0 0
6925 1 1 0 23.15198621610178 21.378971265359738 -1.646215516772899 0 0 0
13427 1 2 0 17.79745572972132 23.339063324021634 -2.730661064477139e-07 0 0 0
13384 1 2 0 20.05659631666222 21.14854083125203 -7.353473569182483e-07 0 0 0
13385 1 2 0 23.114919605984362 21.431906622656413 -4.2368543475410286e-07 0 0 0
6859 1 1 0 24.705237989644097 18.793269258887186 -1.600308448478849 0 0 0
9681 1 2 0 26.184812598020144 18.778969052613043 -2.310731716862363 0 0 0
6860 1 1 0 27.687655378651673 18.93205066927762 -1.6500702660998001 0 0 0
9682 1 2 0 23.63953114815958 19.89565723608209 -2.2271808905991226 0 0 0
9683 1 2 0 28.170176051802933 20.390301561010187 -2.2191847618437097 0 0 0
9785 1 2 0 24.263814359909436 22.474388045307414 -2.2057529604586317 0 0 0
9792 1 2 0 27.012427200902877 22.885953329058715 -2.186833180215594 0 0 0
6929 1 1 0 28.292209491636626 21.929316152593916 -1.6442520195334012 0 0 0
6974 1 1 0 25.508813965678883 23.430075629437653 -1.6473775762381202 0 0 0
13320 1 2 0 27.704584931222076 18.900074022782093 -2.1344959566665332e-07 0 0 0
13434 1 2 0 25.547072239165043 23.42134998476092 -1.7778958735595714e-07 0 0 0
13319 1 2 0 24.869397146074135 19.148467942139597 -2.6485935121657386e-08 0 0 0
6928 1 1 0 33.57446993302204 19.97742752221826 -1.6494940574070835 0 0 0
9791 1 2 0 29.823128553904862 22.272931306305118 -2.1927247881502976 0 0 0
6930 1 1 0 31.39661917914105 22.392910075587544 -1.6449355817347946 0 0 0
9789 1 2 0 32.51594268573813 21.213826991689693 -2.1781621611999693 0 0 0
9793 1 2 0 31.687480412360376 23.95659272428217 -2.166136625492275 0 0 0
13388 1 2 0 33.56336226876893 20.05505311061784 -6.240016221058718e-07 0 0 0
9619 1 2 0 37.5970134437793 18.526402722347527 -2.235215683580682 0 0 0
9790 1 2 0 35.183506211592835 20.113999074722898 -2.1706092780886674 0 0 0
6933 1 1 0 36.76022469845844 19.850492164710396 -1.646080904416553 0 0 0
9797 1 2 0 37.7613897255983 21.041944792661745 -2.195767302114872 0 0 0
6977 1 1 0 38.662958155814614 22.301756619031426 -1.6484670542750814 0 0 0
9862 1 2 0 40.22756674751369 22.252396742979236 -2.2181261259242926 0 0 0
9863 1 2 0 37.83297062845445 23.581114608089884 -2.2997722788949604 0 0 0
6832 1 1 0 45.860614865489815 18.609156860018775 -1.645415813027092 0 0 0
9639 1 2 0 45.12031222677117 19.966971913790847 -2.2407801974299777 0 0 0
6978 1 1 0 41.74724524006762 22.637175383091176 -1.6492714665755657 0 0 0
9806 1 2 0 42.87443399942863 21.541311158284696 -2.1953207079037576 0 0 0
6938 1 1 0 44.4353523214351 21.352584599491177 -1.6457638516761355 0 0 0
9805 1 2 0 45.31907993375601 22.645843720967537 -2.187212001323705 0 0 0
9864 1 2 0 42.273435420033856 24.130887760772428 -2.1956472458862795 0 0 0
6831 1 1 0 48.906994573660086 18.588139429474978 -1.6434377448444835 0 0 0
9638 1 2 0 49.35242872346816 20.06127182797518 -2.217448210695962 0 0 0
9803 1 2 0 47.999353413039174 22.43250876191974 -2.2302872756912113 0 0 0
6937 1 1 0 49.29837535196925 21.60000907311646 -1.6458839808076486 0 0 0
9804 1 2 0 50.672551919799005 22.232886711650337 -2.269328504634619 0 0 0
6939 1 1 0 46.7277593416491 23.31693152214745 -1.646466382323493 0 0 0
13397 1 2 0 49.26568291954024 21.623019815784 -4.1865985162959303e-07 0 0 0
9652 1 2 0 53.97552005471441 19.753734406956287 -2.2175267730806723 0 0 0
6943 1 1 0 51.96354030293139 23.022381122677317 -1.646636712214579 0 0 0
9811 1 2 0 53.35802691993317 22.35129759420646 -2.217268173557405 0 0 0
6942 1 1 0 54.434836519914235 21.236473141195045 -1.6469245531533405 0 0 0
9812 1 2 0 55.93085006070247 21.656143184565202 -2.228595754125326 0 0 0
6945 1 1 0 57.126807226716856 22.64079169255296 -1.6449063633854146 0 0 0
9816 1 2 0 56.87492986577389 24.178813200671936 -2.1933172279715962 0 0 0
13402 1 2 0 54.45301066197448 21.214452738869966 1.4364817779178178e-07 0 0 0
13403 1 2 0 51.96550757086835 22.99153340008802 -2.3134130332862008e-07 0 0 0
9662 1 2 0 59.35460674150771 19.699978834801104 -2.2115621072785245 0 0 0
9814 1 2 0 58.6138269005673 22.202782734989512 -2.2181689779228333 0 0 0
6944 1 1 0 59.78038180212591 21.18668856841717 -1.6455785599890345 0 0 0
9815 1 2 0 61.2508326369969 21.642923179629648 -2.250861033157408 0 0 0
6949 1 1 0 62.67887026868609 22.219127628256075 -1.6466174754460037 0 0 0
13404 1 2 0 59.838659047498545 21.194149354648967 -1.1017820710520077e-07 0 0 0
9822 1 2 0 62.9732590294646 23.726014831026674 -2.234691899777823 0 0 0
9703 1 2 0 65.69236858316884 19.34923401871084 -2.179872223045643 0 0 0
6948 1 1 0 65.40613538387261 20.87696623419735 -1.643044303762273 0 0 0
9820 1 2 0 63.91949027699223 21.299496420836345 -2.2245897844943303 0 0 0
9821 1 2 0 66.63000087326989 21.7928249367463 -2.256365951249709 0 0 0
6951 1 1 0 67.97729295231737 22.527988174653217 -1.6470457760905843 0 0 0
9825 1 2 0 67.92389111165784 24.055496149362504 -2.2438476791949693 0 0 0
13408 1 2 0 65.39891938762494 20.97308735374078 -7.018465735204241e-07 0 0 0
9716 1 2 0 70.43119439332786 19.45466204915502 -2.2384686566567367 0 0 0
6950 1 1 0 70.64049814036237 20.9783288046694 -1.6469571653001844 0 0 0
9823 1 2 0 69.36422453734211 21.849856260800195 -2.2233981478179934 0 0 0
9824 1 2 0 72.06147751910066 21.59805812943404 -2.2325420596725363 0 0 0
6981 1 1 0 73.29478706157894 22.53763054206404 -1.6450245363888831 0 0 0
9868 1 2 0 73.07886422599265 24.07048295240423 -2.212406710443915 0 0 0
13410 1 2 0 70.6600573411419 20.977645785980002 -1.5304537721832004e-07 0 0 0
9729 1 2 0 75.59892120617896 19.600119875436246 -2.2250466898487655 0 0 0
6952 1 1 0 75.99234670837859 21.09650413308477 -1.6469590673736625 0 0 0
9827 1 2 0 74.7778406620448 22.070005065695657 -2.204983363024808 0 0 0
9826 1 2 0 77.46404981470909 21.61305443830108 -2.231555466371659 0 0 0
6954 1 1 0 78.6662326981165 22.605786721263332 -1.6440989733076306 0 0 0
9830 1 2 0 78.33392974890941 24.133780332260635 -2.164278137059502 0 0 0
13414 1 2 0 78.66790043392531 22.490861530100595 2.1723951699194265e-07 0 0 0
13412 1 2 0 76.04369835337616 21.08697391795628 -3.464154184611314e-07 0 0 0
9746 1 2 0 80.71280884370465 19.842679375685666 -2.1759835058267614 0 0 0
9759 1 2 0 84.98570823448784 19.7988783907222 -2.2272351907626766 0 0 0
9828 1 2 0 80.2085496242114 22.336249078928535 -2.2101335754353237 0 0 0
6953 1 1 0 81.33837766378628 21.268241725425987 -1.6411261367518133 0 0 0
9829 1 2 0 82.86695883999064 21.526298214702937 -2.236167010859736 0 0 0
6956 1 1 0 84.39616388753869 21.228348613715912 -1.6481699640284848 0 0 0
9833 1 2 0 85.43706587226421 22.355119026966065 -2.2421295142835116 0 0 0