LAMMPS data file via write_data, version 2 Aug 2023, timestep = 121, units = metal

15828 atoms
2 atom types

6.338168221933907 200.0286719425232 xlo xhi
7.17981854459125 171.25377686847764 ylo yhi
-100 100 zlo zhi

Masses

1 28.085
2 15.999

Atoms # full

6602 1 1 0 7.256291580536131 9.019410162225993 -1.6455256187282787 0 0 0
9246 1 2 0 7.901178004269424 7.5867665560308275 -2.1852964276522546 0 0 0
9247 1 2 0 8.320353934125292 10.165706219998462 -2.2045015702018698 0 0 0
9559 1 2 0 10.698052590212809 11.568981613447564 -2.211129970350652 0 0 0
6780 1 1 0 9.120228484188585 11.507337748527277 -1.6466173260400196 0 0 0
13197 1 2 0 7.197176952032703 9.056764458886434 -4.469813723440306e-06 0 0 0
13375 1 2 0 9.177505876226858 11.513745321057185 -4.6172910098202546e-06 0 0 0
9558 1 2 0 8.165595828242166 12.744057394048918 -2.200349813086836 0 0 0
9568 1 2 0 13.005490596291601 7.866645863249173 -2.217995379312577 0 0 0
6786 1 1 0 13.989769685420766 9.079806436965798 -1.6470503402124663 0 0 0
9569 1 2 0 15.573242238283976 8.984839933357533 -2.1982903704207235 0 0 0
6929 1 1 0 17.158866602985693 8.878854563902681 -1.6464312056658106 0 0 0
6782 1 1 0 12.271464561934536 11.68310633561534 -1.6468642510393048 0 0 0
9562 1 2 0 13.248039940591838 10.458669339318465 -2.1978478055652904 0 0 0
13381 1 2 0 14.027693881969283 9.049266575570954 -3.2759032453331796e-06 0 0 0
13377 1 2 0 12.225553231959896 11.671679877726474 -4.221123676083152e-06 0 0 0
9778 1 2 0 17.918339473698072 7.514347294096474 -2.2019233809102388 0 0 0
9775 1 2 0 18.143219165608983 10.097269332278394 -2.2040845345049873 0 0 0
6927 1 1 0 19.03449317259605 11.383757465621466 -1.6471791704948306 0 0 0
9776 1 2 0 20.622998619081333 11.362082705730572 -2.2058780418623822 0 0 0
6930 1 1 0 22.127253735643418 11.865382120171743 -1.6426177725930613 0 0 0
9774 1 2 0 18.189264782367886 12.702345084034292 -2.202431462250536 0 0 0
6935 1 1 0 24.388378526091675 7.302067104941283 -1.6476024279274928 0 0 0
9786 1 2 0 24.770790951679082 8.818380454799385 -2.203972437065789 0 0 0
9780 1 2 0 23.51497669102212 11.094922766390352 -2.1825936732906466 0 0 0
6934 1 1 0 24.9380279675214 10.37844502289328 -1.6470686516648425 0 0 0
9787 1 2 0 26.416193163230545 11.025062923090102 -2.1704742930812952 0 0 0
6938 1 1 0 27.737091874639113 11.962335675660796 -1.6437166355056911 0 0 0
13530 1 2 0 24.374857841583104 7.295026407271792 -6.75075502530019e-07 0 0 0
6947 1 1 0 31.779888253878653 8.506452575495786 -1.6482864311225471 0 0 0
9807 1 2 0 30.71337676456341 7.327150695818315 -2.197145655489201 0 1 0
9794 1 2 0 29.30920573995177 11.646600415709736 -2.172129666445898 0 0 0
6942 1 1 0 30.918116837242422 11.59002683080916 -1.6488597042358495 0 0 0
9799 1 2 0 31.45298646908234 10.073108902928777 -2.1676113891521167 0 0 0
9808 1 2 0 33.28100395101937 8.032958108627643 -2.2078678436768144 0 0 0
9798 1 2 0 31.928623196084637 12.887554371826178 -2.1551945194917317 0 0 0
6952 1 1 0 34.84304896736589 7.982724253964654 -1.6457165877045963 0 0 0
9814 1 2 0 35.568652689019075 9.370737729336096 -2.193847769721203 0 0 0
6951 1 1 0 36.78745957678816 10.344769691097396 -1.6456563529572565 0 0 0
9812 1 2 0 36.60827016313651 11.87954899325208 -2.225986873237594 0 0 0
9815 1 2 0 38.20159541086193 9.740781780422585 -2.246021964826125 0 0 0
6956 1 1 0 39.66122670495777 9.273008981504773 -1.6448023620465766 0 0 0
9823 1 2 0 40.074631955079276 7.7800251648470065 -2.199454089311633 0 0 0
13551 1 2 0 39.62929760620047 9.290898405106036 -3.7904794951904095e-07 0 0 0
9819 1 2 0 40.796021848302445 10.29416164351645 -2.2423771367319056 0 0 0
6954 1 1 0 42.14526978011461 11.024057812298038 -1.6464587288755115 0 0 0
9820 1 2 0 43.47281415691617 10.225642999620634 -2.2301882171791916 0 0 0
9818 1 2 0 42.05438766008114 12.572003263338205 -2.220960431543136 0 0 0
6958 1 1 0 44.712094180619516 9.289118688813664 -1.6464981437385804 0 0 0
9826 1 2 0 44.570583483742375 7.726035215715032 -2.191806125063949 0 0 0
9825 1 2 0 46.12294218121641 9.954943748930592 -2.2096289931675765 0 0 0
6959 1 1 0 47.23681650602658 11.042178230572551 -1.6470494150268793 0 0 0
9828 1 2 0 48.70560711718006 10.606248311739861 -2.2443533350663625 0 0 0
9827 1 2 0 46.95394067543111 12.551106439349088 -2.249597005527342 0 0 0
6971 1 1 0 50.643390673897834 7.2670201193812805 -1.646727273167967 0 0 0
9841 1 2 0 50.62790759294952 8.83235955137306 -2.1953344050488974 0 0 0
6967 1 1 0 50.2159631200407 10.330565295468682 -1.6450063606351153 0 0 0
9840 1 2 0 51.24369500323732 11.494575283302922 -2.2284744488030976 0 0 0
13566 1 2 0 50.625173464177095 7.2041309523280646 -2.5503248219045846e-07 0 0 0
13554 1 2 0 47.226107384353085 11.05034215998109 -4.345312659946302e-08 0 0 0
13562 1 2 0 50.22805790870459 10.371883229651194 -1.20570402915921e-07 0 0 0
9853 1 2 0 54.42402418827093 8.22754419365757 -2.1450306689829644 0 0 0
6968 1 1 0 52.38098828636539 12.553132756009244 -1.6475050075986586 0 0 0
9843 1 2 0 53.84254389628208 12.071851327025804 -2.2446247560637462 0 0 0
6975 1 1 0 55.884977663207074 8.83754344192303 -1.6443830237132033 0 0 0
9854 1 2 0 57.23931521016243 8.105109680466187 -2.2734945285674963 0 0 0
6974 1 1 0 55.351713687784724 11.800590275891837 -1.64527955261129 0 0 0
9851 1 2 0 55.928553133710096 10.374477506054758 -2.227673252213397 0 0 0
13570 1 2 0 55.96431374059368 8.797116275887463 -1.529489039640543e-07 0 0 0
13569 1 2 0 55.308852315698836 11.802750851635645 -1.5628658968554494e-07 0 0 0
9852 1 2 0 56.371624626660505 12.961629087633566 -2.215413585262181 0 0 0
6983 1 1 0 58.609951645465145 7.439488093241867 -1.6469358714003295 0 0 0
9865 1 2 0 60.016711647152015 8.190879428746177 -2.128204734005106 0 0 0
6982 1 1 0 61.51422695286932 7.646110394886101 -1.636849716730645 0 0 0
9863 1 2 0 62.59048399270006 8.765612205808766 -2.1670354202214535 0 0 0
9861 1 2 0 61.42275335633293 11.163009675407915 -2.2258078468592144 0 0 0
6981 1 1 0 62.73618045333354 10.320248897239507 -1.6441933663642305 0 0 0
6980 1 1 0 60.58545413876872 12.476331265508351 -1.6468679584350325 0 0 0
13577 1 2 0 61.45834417302383 7.577032630314615 -3.111719517453252e-06 0 0 0
9857 1 2 0 59.04237799559735 12.660385431670113 -2.225340323323927 0 0 0
13578 1 2 0 58.45119709115774 7.375521483693316 -4.675384962016423e-08 0 0 0
9864 1 2 0 64.21651229385972 10.749915106961016 -2.2669351512911797 0 0 0
6991 1 1 0 68.07567057762209 9.132887720013294 -1.6508632444582931 0 0 0
9880 1 2 0 67.3588650462263 7.720085555510689 -2.1530376270706983 0 0 0
6987 1 1 0 65.68387965689793 10.781314986335591 -1.4933477585889747 0 0 0
9874 1 2 0 66.972692829932 10.16797282408267 -2.3187483939204805 0 0 0
9873 1 2 0 66.20618994442792 12.316816914993797 -1.3074703458489632 0 0 0
9879 1 2 0 69.61546586131345 9.367145038867708 -2.2326279284519153 0 0 0
9882 1 2 0 72.36635239334387 9.181251653341572 -2.2120975557474307 0 0 0
6999 1 1 0 73.82989197536237 8.607137071020038 -1.6475389260164506 0 0 0
6992 1 1 0 71.03442243153731 10.01134021538827 -1.6483770319526783 0 0 0
9881 1 2 0 71.11098002772835 11.572558257455508 -2.2195069704334403 0 0 0
13594 1 2 0 73.8009031396092 8.659974888644337 -3.7968461003105673e-06 0 0 0
13587 1 2 0 71.05566175171647 9.995967190244054 -1.8871999344964356e-07 0 0 0
9892 1 2 0 75.09110587669072 9.501809295854098 -2.231634404834917 0 0 0
9894 1 2 0 76.23705416485504 11.853043125174748 -2.237611446711903 0 0 0
7005 1 1 0 79.29046483936706 9.025410457816443 -1.6478158040361424 0 0 0
9903 1 2 0 79.39912486699615 7.392591157270395 -2.1434683969764867 0 0 0
9895 1 2 0 77.81676686282151 9.60072019736483 -2.189825912353386 0 0 0
7000 1 1 0 76.41303680983846 10.307085312011719 -1.6474799683823427 0 0 0
13600 1 2 0 79.37288917141257 9.000867312855057 -3.0699962739745188e-06 0 0 0
13595 1 2 0 76.42120552478409 10.32344199101934 -3.7228308661462797e-06 0 0 0
9902 1 2 0 80.4147699878175 10.195403612615365 -2.166836549714538 0 0 0
7006 1 1 0 81.68316404415525 11.190895696165134 -1.6296233695582845 0 0 0
9916 1 2 0 84.9976810857752 8.673384052777699 -2.2395606580074037 0 0 0
7013 1 1 0 84.56091525941721 10.146176092629645 -1.6416817437587612 0 0 0
9905 1 2 0 82.99243107860782 10.305702928027483 -2.096071547296714 0 0 0
9917 1 2 0 85.43393068741554 11.418437637201055 -2.2847192525595714 0 0 0
13601 1 2 0 81.47391835762727 11.346763514819626 -3.04222665237358e-06 0 0 0
9904 1 2 0 82.08112561795178 12.754385333197686 -2.179561515417053 0 0 0
7016 1 1 0 86.62628614500937 12.275395950841073 -1.517543862104897 0 0 0
7021 1 1 0 87.98396098952568 7.30106185945891 -1.6416680974336875 0 0 0
9928 1 2 0 87.98478696855221 8.863246871528242 -2.2250599142799516 0 0 0
7020 1 1 0 88.89288798950584 10.048162445488664 -1.5236928096715714 0 0 0
9922 1 2 0 88.01630549577445 11.407506377392885 -1.4852473940347488 0 0 0
7022 1 1 0 91.52708798310844 11.162524614634705 -1.5143335074925135 0 0 0
9929 1 2 0 90.30168180881172 10.387180608131382 -2.332951817475114 0 0 0
13620 1 2 0 90.68052327541356 7.541612264812844 -3.1399545598700502e-06 0 1 0
9934 1 2 0 92.00717454269561 7.88048541220148 -2.3394574687742136 0 0 0
7024 1 1 0 93.23405465114118 8.638858587589034 -1.518012294355246 0 0 0
9935 1 2 0 94.70370333880462 8.733863565831573 -2.2736838142068714 0 0 0
9942 1 2 0 97.2678875527287 9.066316981174332 -2.1807920906039815 0 0 0
9932 1 2 0 92.85469372515148 10.23429732476187 -1.4202709554410935 0 0 0
7029 1 1 0 95.86378966705166 9.771566050961535 -1.653799870759352 0 0 0
9941 1 2 0 95.73879690739336 11.338378384357439 -2.206293239733704 0 0 0
13619 1 2 0 93.43339632896144 7.9775819710364635 -1.9117700184503767e-06 0 0 0
9931 1 2 0 92.12102416767307 12.538746021095797 -2.183712553137497 0 0 0
7030 1 1 0 96.20800111917687 12.840631103962002 -1.6473824844465599 0 0 0
7032 1 1 0 98.13712374492748 7.766981644634548 -1.6441142853421549 0 0 0
9398 1 2 0 99.6369942665859 7.972598230169126 -2.2689417548787882 0 0 0
6684 1 1 0 101.12262661406906 8.257953721667922 -1.6462939910044967 0 0 0
6683 1 1 0 101.59271215504523 11.262738760437822 -1.645841262764852 0 0 0
9395 1 2 0 101.5942568042159 9.722150351471427 -2.2241696910774675 0 0 0
9385 1 2 0 103.00065315157461 11.90682024806789 -2.2209918398075135 0 0 0
9396 1 2 0 100.28218213668553 12.084881835072373 -2.229824398746214 0 0 0
13279 1 2 0 101.1345348543159 8.238435349448256 -3.033984523451521e-07 0 0 0
13278 1 2 0 101.55553762182834 11.289447582295153 -3.2378527169555124e-08 0 0 0
6781 1 1 0 7.678468930352117 14.225037779755935 -1.6455421451718402 0 0 0
9560 1 2 0 8.912258873943903 15.19632844582157 -2.18598641027233 0 0 0
6783 1 1 0 9.614212665008228 16.5933695436452 -1.6456166605922122 0 0 0
9564 1 2 0 8.566110678917603 17.718950289568006 -2.244257320144798 0 0 0
9563 1 2 0 11.158284009892018 16.818963049126456 -2.2283186031186815 0 0 0
13376 1 2 0 7.613377808529036 14.262967387267395 -3.16986914382553e-06 0 0 0
13378 1 2 0 9.687560503144374 16.626694193067124 -5.3043034413848844e-06 0 0 0
9561 1 2 0 13.000409275886657 13.070130487627427 -2.2021623895118467 0 0 0
9567 1 2 0 15.65404386213863 13.853798521523412 -2.212781617655237 0 0 0
6785 1 1 0 14.115700342585859 14.17014006522913 -1.6460044884597937 0 0 0
9565 1 2 0 13.616778578588994 15.655017135483918 -2.191994537557875 0 0 0
6784 1 1 0 12.719449435104162 16.94294423960672 -1.649507639722695 0 0 0
13379 1 2 0 12.681867563975304 16.959988729455617 -3.4990175678661164e-06 0 0 0
6928 1 1 0 17.220998701964316 13.927471903513508 -1.6484056552405628 0 0 0
9566 1 2 0 13.456367206390222 18.336104444380418 -2.220957934073771 0 0 0
9666 1 2 0 16.15351389857049 18.478341161580797 -2.155173363766793 0 0 0
9779 1 2 0 22.304485771189007 13.434397236236187 -2.17342834651835 0 0 0
9777 1 2 0 17.921659978921067 15.305501316239942 -2.2540527348128503 0 0 0
6933 1 1 0 18.995674621921083 16.39231444583054 -1.6423778109653424 0 0 0
9783 1 2 0 20.53612794088238 16.14216105525693 -2.1882503840784513 0 0 0
9785 1 2 0 18.695638574952962 17.914350089971094 -2.2072863324898413 0 0 0
6932 1 1 0 21.87445417368022 16.953335872843343 -1.6468396609612503 0 0 0
9781 1 2 0 23.136756848781115 16.03451511040927 -2.1849742234823797 0 0 0
9784 1 2 0 22.048936008443007 18.492680204827963 -2.2554373689939196 0 0 0
6931 1 1 0 23.450286566849417 14.506203214737777 -1.6430040677499067 0 0 0
9793 1 2 0 27.502132295071636 13.521908508878752 -2.175914726099438 0 0 0
9782 1 2 0 24.952571482181703 14.129023116762573 -2.213994141946235 0 0 0
6939 1 1 0 26.417955558186076 14.65519269825824 -1.6481447140031975 0 0 0
9795 1 2 0 26.737975559238453 16.162745081619292 -2.268607348603628 0 0 0
6944 1 1 0 27.478985641269606 17.50134629254409 -1.6283530689988313 0 0 0
13539 1 2 0 27.213862003414803 17.502657606285204 -3.3666050326844506e-06 0 0 0
9802 1 2 0 29.073918834822898 17.356098481631324 -2.028201136464827 0 0 0
6943 1 1 0 33.09412590371693 14.041411783529766 -1.6467694702933857 0 0 0
9800 1 2 0 33.01401218412024 15.655890656747308 -2.1644467543795587 0 0 0
9804 1 2 0 31.590748920495873 17.858164814225958 -2.29781196482599 0 0 0
6945 1 1 0 32.986894688769425 17.264018469170153 -1.6476140187939892 0 0 0
13538 1 2 0 33.013031508758026 14.034984408243302 -2.885830896814902e-06 0 0 0
13540 1 2 0 33.06551783569205 17.202278378576572 -3.343122895143883e-06 0 0 0
9801 1 2 0 34.6127944836166 13.603253948488991 -2.1888598489906506 0 0 0
6946 1 1 0 30.22450494164263 18.46814569312637 -1.6315754295334293 0 0 0
13541 1 2 0 30.4075782743117 18.600559864559912 -3.768682921986969e-06 0 0 0
9805 1 2 0 34.084983847255984 18.45915323833181 -2.1452082801398014 0 0 0
6950 1 1 0 36.16735921045244 13.369900645834855 -1.6468643433789791 0 0 0
9813 1 2 0 37.27316353244047 14.500791234959472 -2.200972864380243 0 0 0
9821 1 2 0 39.998569136299075 14.419747271779595 -2.207291414901292 0 0 0
6957 1 1 0 38.6627765430303 15.251497096868693 -1.6493537554436435 0 0 0
9824 1 2 0 38.74546389317895 16.8254811485537 -2.2137715775275857 0 0 0
13545 1 2 0 36.178296051620976 13.403696218649795 -1.0233622777485724e-07 0 0 0
7042 1 1 0 39.314445144107076 18.286545905704937 -1.644142603574751 0 0 0
6955 1 1 0 41.51143663996538 14.029038502466745 -1.6465174003944891 0 0 0
9822 1 2 0 42.600286155542776 15.14943404366035 -2.2052373724127734 0 0 0
6961 1 1 0 44.10280790393913 15.55014406232932 -1.6447384358121158 0 0 0
9829 1 2 0 45.237107973296894 14.484888034575398 -2.1945432061715704 0 0 0
9831 1 2 0 44.52581893749097 17.01810705832898 -2.251363452557607 0 0 0
9961 1 2 0 40.88206361524916 18.532318645545075 -2.159744964592297 0 0 0
7045 1 1 0 44.70054354497772 18.54064646274044 -1.6461581341060687 0 0 0
6960 1 1 0 46.73804254228102 14.066096674378954 -1.6458147339744196 0 0 0
9830 1 2 0 47.919633671986354 15.076684849679292 -2.223059587506111 0 0 0
6970 1 1 0 48.89345970519269 16.289024194422545 -1.6467871634432365 0 0 0
9846 1 2 0 48.36004927082386 17.740044441976224 -2.2260564766200086 0 0 0
9844 1 2 0 50.43009456734543 16.109672842752957 -2.224237182275027 0 0 0
6969 1 1 0 51.90283430339664 15.627913851314016 -1.6466863070223279 0 0 0
9842 1 2 0 52.13321507516144 14.088641607227405 -2.2147188853798148 0 0 0
9845 1 2 0 53.0518736691976 16.685224711781466 -2.2185286261160897 0 0 0
6979 1 1 0 54.32723038834224 17.586685884322797 -1.6476144324929787 0 0 0
9858 1 2 0 55.71268782551537 16.874511598738227 -2.217181258659097 0 0 0
6978 1 1 0 57.23930334959088 16.588619875010707 -1.647672452528934 0 0 0
13573 1 2 0 57.2169428226756 16.58211815202656 -9.395414971107868e-07 0 0 0
9856 1 2 0 57.835019704974314 15.147956985556004 -2.210261590718292 0 0 0
6977 1 1 0 57.78676045978908 13.589346697073204 -1.6475701444189383 0 0 0
9859 1 2 0 58.22024427082885 17.79426305222491 -2.2271739075246964 0 0 0
9862 1 2 0 61.39496580321257 13.790910353727421 -2.248904049050061 0 0 0
6984 1 1 0 62.78055159593284 14.418056929158867 -1.6388414370500117 0 0 0
9868 1 2 0 62.974201053374834 15.927702771657959 -2.218828834274167 0 0 0
9870 1 2 0 60.875647937942134 17.485829329155457 -2.2367371392174276 0 0 0
6985 1 1 0 62.39848302624443 17.34480152153061 -1.6413111052277025 0 0 0
6986 1 1 0 59.6394238867776 18.403199819709087 -1.6459662235968369 0 0 0
9869 1 2 0 64.12241998455869 13.651154367587628 -2.2286255001945614 0 0 0
6988 1 1 0 65.58352865362387 13.809305797046203 -1.4808227259682831 0 0 0
9875 1 2 0 66.74247364192878 14.606098558967446 -2.3318854136802667 0 0 0
6994 1 1 0 68.25701068308561 14.744362247993763 -1.6515173196117445 0 0 0
9885 1 2 0 68.64668631154834 16.28502016624255 -2.122515684815668 0 0 0
9972 1 2 0 66.14452306725491 17.590657641171692 -2.2191670063745503 0 0 0
7050 1 1 0 67.70511683096977 17.5665352013643 -1.6419803155214951 0 0 0
9871 1 2 0 63.47780397818352 18.434884749082023 -2.2364463500835896 0 0 0
7051 1 1 0 65.00627872049805 18.660881217682757 -1.646616675100094 0 0 0
9883 1 2 0 69.2891108176391 13.605495792151224 -2.2517733433468967 0 0 0
6993 1 1 0 70.74378080408287 13.076096200504917 -1.646749973608538 0 0 0
9884 1 2 0 71.83614476605568 14.175262521762187 -2.207814866512526 0 0 0
7002 1 1 0 73.19497870806042 14.914962015861928 -1.6447582128795977 0 0 0
9898 1 2 0 73.18445981262876 16.47261203893871 -2.232333953245987 0 0 0
7053 1 1 0 72.62483023450427 17.924692618088017 -1.6443277098269318 0 0 0
9896 1 2 0 74.44049359892301 13.983372213834391 -2.2141528449178742 0 0 0
13597 1 2 0 73.25699336786317 14.955898471019333 -3.4994580708543994e-06 0 0 0
13648 1 2 0 72.70445387312517 17.88439694475842 -3.6192361282897714e-06 0 0 0
9976 1 2 0 71.08059019796055 18.2091249954366 -2.175162291628742 0 0 0
7001 1 1 0 75.86245299881668 13.34809618915233 -1.649068672663002 0 0 0
13596 1 2 0 75.83737011288562 13.291172649054914 -4.290517416940516e-06 0 0 0
9897 1 2 0 77.02131279160585 14.363588223142699 -2.262630693661631 0 0 0
7008 1 1 0 77.47389798421631 15.805210386943015 -1.6279711982734009 0 0 0
9908 1 2 0 78.90151131703112 16.239416404475218 -2.2991124702992356 0 0 0
9909 1 2 0 76.5113835355347 17.100635339205603 -2.0211099739686014 0 0 0
13603 1 2 0 77.60446208885284 15.619821843760553 -3.8791192547098725e-06 0 0 0
7009 1 1 0 80.38712765712418 16.455796025241668 -1.643365553722374 0 0 0
7069 1 1 0 77.13645665890728 18.60438066071388 -1.6371687298378175 0 0 0
13664 1 2 0 77.238394416878 18.713134620365707 -3.228566382339455e-06 0 0 0
13604 1 2 0 80.42229519944405 16.400642030334247 -3.7283399727938546e-06 0 0 0
9906 1 2 0 81.12772406800575 15.133200503102396 -2.2466166222954778 0 0 0
7007 1 1 0 82.42527785817013 14.323742990509958 -1.637986117392175 0 0 0
9907 1 2 0 83.62321102534553 15.414711843304492 -2.152330450355209 0 0 0
7019 1 1 0 84.28841015193133 16.87891585669646 -1.6480270101067735 0 0 0
9925 1 2 0 85.80786113500028 16.787103105367635 -2.3202689572717468 0 0 0
13602 1 2 0 82.59907429254831 14.193677145837123 -4.136407758634378e-06 0 0 0
9910 1 2 0 80.98560520919015 17.939204467144656 -2.117179429656232 0 0 0
9927 1 2 0 83.83372661058863 18.45357829060408 -2.117644755585962 0 0 0
9921 1 2 0 87.20121135778406 13.638796342701063 -2.267058599487893 0 0 0
7017 1 1 0 88.5674717871789 14.402387896821828 -1.6486584570094092 0 0 0
9923 1 2 0 88.38516949012681 15.938692426835033 -2.2113938939364397 0 0 0
9924 1 2 0 90.05857113444884 14.050873854936576 -2.267143084360744 0 0 0
7023 1 1 0 91.58827511591986 14.011661333979488 -1.6367099480633134 0 0 0
7018 1 1 0 87.24321261396753 16.887093076685435 -1.524320083658343 0 0 0
9926 1 2 0 87.97940355953581 18.333067167490313 -1.4727508631599424 0 0 0
9943 1 2 0 95.24746246958813 14.086781913276242 -2.2029456283474005 0 0 0
9933 1 2 0 92.70291533511592 15.082798713856082 -2.2293547893185965 0 0 0
7031 1 1 0 94.24976620226728 15.312057769440154 -1.649699254608663 0 0 0
9944 1 2 0 94.65492335500824 16.822536153438172 -2.2122885820263103 0 0 0
7055 1 1 0 95.08302360247065 18.3266483237585 -1.647305722559702 0 0 0
9979 1 2 0 96.61270677380006 18.598916552462935 -2.221291516661475 0 0 0
13398 1 2 0 103.11854187535236 16.958068150162376 -7.082413765554305e-07 0 0 0
9596 1 2 0 97.75132129258454 13.073792049124725 -2.2197638562556765 0 0 0
6804 1 1 0 99.28552382793772 13.27536549371806 -1.6470119141954511 0 0 0
9595 1 2 0 99.8822950763581 14.697671357744982 -2.2346458890209555 0 0 0
6805 1 1 0 100.1414438377728 16.211892461692138 -1.6459492236786193 0 0 0
9597 1 2 0 98.9007290382755 17.149133100665694 -2.206866918420608 0 0 0
9593 1 2 0 101.59107114140296 16.74748394855657 -2.233165185227241 0 0 0
6803 1 1 0 103.12381546469962 16.934372653167575 -1.6474565839809934 0 0 0
7056 1 1 0 98.15673052154979 18.51262388081844 -1.6469632582658227 0 0 0
6826 1 1 0 7.923886442461362 19.10648689301107 -1.6529882851608668 0 0 0
9627 1 2 0 6.4428912304927985 19.4297611003633 -2.308394798024205 0 0 0
9629 1 2 0 8.895078601936886 20.260313566116253 -2.287996447693609 0 0 0
9662 1 2 0 8.809833403243989 22.906229336812952 -2.2797247909547176 0 0 0
6847 1 1 0 9.565078748512907 21.590527534181422 -1.6493902838695524 0 0 0
9661 1 2 0 11.124384555941946 21.542833625557073 -2.2135092451586527 0 0 0
13421 1 2 0 7.892970695112833 19.056514855380648 -3.862823677816316e-06 0 0 0
13442 1 2 0 9.468735278029971 21.585285025359834 -3.8244719524578114e-06 0 0 0
6879 1 1 0 7.980982996681631 24.17023422611396 -1.6524997652555014 0 0 0
9664 1 2 0 11.405886788800213 24.15723185309199 -2.1485658032950523 0 0 0
9709 1 2 0 6.450275791790097 24.023880643130934 -2.2124397870638624 1 0 0
13443 1 2 0 12.190477912766474 22.487884778113358 -1.862009742985942e-05 0 0 0
6848 1 1 0 12.090076235196188 22.73548940426073 -1.627312504696298 0 0 0
6849 1 1 0 14.753312223854177 19.204024711965264 -1.6376018662360805 0 0 0
9665 1 2 0 14.996485845694146 20.746819537092446 -2.205580098832533 0 0 0
9663 1 2 0 13.577130658335443 22.842873569387727 -2.2717122310055617 0 0 0
6850 1 1 0 15.004130136886179 22.30864583730452 -1.6505339066632263 0 0 0
9667 1 2 0 16.027956861321556 23.452003005568194 -2.302079143749017 0 0 0
7057 1 1 0 17.63433036915938 19.028311965186052 -1.6426281177132853 0 0 0
13445 1 2 0 15.178028703203864 22.299499525418728 -3.82366862100692e-06 0 0 0
7111 1 1 0 17.25325595524421 24.2410292132457 -1.5007813986159013 0 0 0
9982 1 2 0 18.109283975312195 20.510433927682584 -2.2385255044023835 0 0 0
10025 1 2 0 18.407610159447486 23.09290510057608 -1.3492363923090536 0 0 0
7086 1 1 0 19.092726971853175 21.627118217440884 -1.4973143067785364 0 0 0
10024 1 2 0 20.46868342391843 21.96431859626249 -2.33845463310282 0 0 0
7087 1 1 0 21.918417073373895 22.397469488831792 -1.6528552177676954 0 0 0
9958 1 2 0 22.888932066327154 21.192839989405964 -2.21638087157722 0 0 0
7040 1 1 0 23.05432901148645 19.661624512918102 -1.6334832965629045 0 0 0
13635 1 2 0 22.870036540965106 19.677257530730383 -2.2335327144706024e-06 0 0 0
10026 1 2 0 22.55057550327805 23.8279940594619 -2.2021527784350305 0 0 0
9803 1 2 0 27.075463584953688 18.993525263538636 -2.2414839302943954 0 0 0
9957 1 2 0 24.590505109466477 19.310706978251513 -2.1033529908754796 0 0 0
7041 1 1 0 25.97388361220544 20.08360924084231 -1.6395021167300332 0 0 0
9959 1 2 0 26.102222538479033 21.655773109841544 -2.1966478251370503 0 0 0
7088 1 1 0 27.137738668658596 22.858930335852932 -1.646123597842439 0 0 0
13636 1 2 0 26.105034563222343 20.178052420133227 -3.8022439441588436e-06 0 0 0
9986 1 2 0 28.605469088824886 22.37369579429101 -2.227749317233241 0 0 0
13683 1 2 0 27.07784315928109 22.925303189448048 -3.7791342886516896e-06 0 0 0
10027 1 2 0 26.86733362398823 24.408472610037304 -2.2097250703506965 0 0 0
9806 1 2 0 29.87933324582705 19.9610567468047 -2.253879144493235 0 0 0
7060 1 1 0 29.865859709392733 21.498112923325394 -1.6424872482819743 0 0 0
9985 1 2 0 31.162647072503898 22.332618985052985 -2.194077420292911 0 0 0
7061 1 1 0 32.68461429343797 22.61533472998949 -1.6419545922952166 0 0 0
13656 1 2 0 32.80833563230929 22.633525545421683 -3.2533629296021233e-06 0 0 0
7043 1 1 0 34.48272344027619 20.022891110318742 -1.6464890731229178 0 0 0
9963 1 2 0 33.57832791642208 21.321310689912256 -2.2061779059179916 0 0 0
13638 1 2 0 34.418823709758385 20.025756181955483 -3.64683450984037e-06 0 0 0
9987 1 2 0 32.998650113528285 24.16219646032579 -2.1989503773976367 0 0 0
13655 1 2 0 29.80664828938191 21.4426156511435 -2.818732666700576e-06 0 0 0
9962 1 2 0 35.99398960423569 20.3847525434939 -2.2166404502624966 0 0 0
9960 1 2 0 38.47019408054624 19.597503351710394 -2.21299343377314 0 0 0
7044 1 1 0 37.48638947964581 20.812314543654196 -1.647167430621478 0 0 0
9964 1 2 0 37.92338130265997 22.333151327075793 -2.19890650822977 0 0 0
10030 1 2 0 40.33868837683494 23.579059497154763 -2.1768031759704343 0 0 0
13639 1 2 0 37.510842840407086 20.83840241757381 -1.1607935791284842e-06 0 0 0
7094 1 1 0 38.768792165890304 23.67401368581341 -1.644419465869529 0 0 0
9967 1 2 0 41.500660413951344 21.19851204220269 -2.228300053630279 0 0 0
7046 1 1 0 41.9326568626492 19.71344457884904 -1.6459273109543644 0 0 0
9965 1 2 0 43.44757805367363 19.43235345725805 -2.2364881191697354 0 0 0
7093 1 1 0 41.659136214991996 22.73823939200588 -1.6455051222618267 0 0 0
10031 1 2 0 43.04334996919112 23.428425841901824 -2.2361283104430236 0 0 0
9966 1 2 0 46.10559563454029 19.20170603634985 -2.2079564223750068 0 0 0
7096 1 1 0 44.125904626071964 24.53553995798868 -1.6468702204363805 0 0 0
10033 1 2 0 45.634172559284224 24.190361865645325 -2.231647366000327 0 0 0
7049 1 1 0 47.66356006002181 19.120269798265195 -1.646542202598731 0 0 0
9971 1 2 0 48.50214838008782 20.41454888455342 -2.2373565376409252 0 0 0
7064 1 1 0 49.0126059888981 21.87421061513464 -1.647436955475497 0 0 0
9992 1 2 0 47.99922354948433 23.037932695624143 -2.2295662912437013 0 0 0
9991 1 2 0 50.52696330613699 22.182882928283014 -2.230685669927305 0 0 0
7095 1 1 0 47.17142312553328 24.340057716677826 -1.646181906335695 0 0 0
7065 1 1 0 52.00354218579034 22.648151767970507 -1.6462030282888345 0 0 0
9860 1 2 0 54.26752647182157 19.15054225201085 -2.214041893230092 0 0 0
7063 1 1 0 54.386421494430834 20.707379148367174 -1.6473503388211626 0 0 0
9989 1 2 0 53.096088254829155 21.5593699584714 -2.2330526676387104 0 0 0
9990 1 2 0 55.75151209052917 21.46253932970185 -2.217944234959939 0 0 0
7067 1 1 0 56.94136462520292 22.46155407425026 -1.6464448492082724 0 0 0
13660 1 2 0 51.9909966979324 22.627897221653768 -4.913630152031519e-07 0 0 0
13658 1 2 0 54.40041992336053 20.688775299814992 -4.047307508133467e-07 0 0 0
9993 1 2 0 52.427604829037854 24.16408282818321 -2.180450192746736 0 0 0
9996 1 2 0 56.84842499287848 23.99710610853889 -2.2427332934529267 0 0 0
9872 1 2 0 59.98168617679081 19.90154202266183 -2.228852073574173 0 0 0
9994 1 2 0 58.37135018013945 21.924619851835057 -2.246907189420233 0 0 0
7066 1 1 0 59.81353117862861 21.429774720714605 -1.6452943497706305 0 0 0
9995 1 2 0 61.018604366993166 22.381099762541552 -2.244913433230766 0 0 0
7105 1 1 0 62.4008005097815 23.06780311947081 -1.6473832899373961 0 0 0
13661 1 2 0 59.827471963597915 21.46851624931412 -1.3722439689022267e-06 0 0 0
10048 1 2 0 62.542604665570266 24.605783205039973 -2.2278206985289595 0 0 0
9974 1 2 0 65.42042540836253 20.13920191837462 -2.2144800920287926 0 0 0
10046 1 2 0 63.67492009432404 22.201792918599185 -2.2309362486515596 0 0 0
7104 1 1 0 65.11422560964812 21.64473619369971 -1.6451629885882126 0 0 0
9973 1 2 0 68.48900724366523 18.911448664266732 -2.1918503061106382 0 0 0
10047 1 2 0 66.37760763607382 22.470403042724506 -2.2787491447687303 0 0 0
7107 1 1 0 67.40997580276955 23.571135149650285 -1.6422081082924747 0 0 0
10049 1 2 0 68.92569091517916 23.24083839275489 -2.222450071624485 0 0 0
7054 1 1 0 69.98722752506836 19.34036561331913 -1.6438364140779573 0 0 0
9978 1 2 0 70.25885860912226 20.839866146033913 -2.2591588508056506 0 0 0
7106 1 1 0 70.22213540555396 22.374875245324464 -1.6552985349515321 0 0 0
9977 1 2 0 73.49314112174157 19.20920314729534 -2.2347009032684664 0 0 0
10050 1 2 0 71.59337846845345 23.034130675124008 -2.3158438115006437 0 0 0
7070 1 1 0 74.6800927041475 20.184315306330575 -1.644165452571501 0 0 0
10000 1 2 0 74.60167103879738 21.73332596243603 -2.1972553068582186 0 0 0
13665 1 2 0 74.65463187300244 20.14810458166766 -4.3545991499107535e-06 0 0 0
10052 1 2 0 74.15866615468533 24.229316792098885 -2.157261445363323 0 0 0
7109 1 1 0 72.61363049677733 24.084396732476062 -1.57167259982758 0 0 0
13704 1 2 0 72.73750056545019 23.59833128075758 -3.131195083653863e-06 0 0 0
9998 1 2 0 76.10300893548256 19.679950056015628 -2.2906738615373223 0 0 0
7108 1 1 0 75.29306160752296 23.135985807678985 -1.6353824162540291 0 0 0
9999 1 2 0 78.58768164946112 19.064388879423202 -2.2626799525362453 0 0 0
7071 1 1 0 80.10368788430773 19.279122967154073 -1.6431615792815506 0 0 0
10081 1 2 0 79.32419544520351 23.054890114483147 -2.253987222404451 0 0 0
13666 1 2 0 80.09485895879851 19.35663604613812 -4.5084732746596984e-06 0 0 0
13703 1 2 0 75.51007906824208 23.062900036397966 -3.7956852739363e-06 0 0 0
10053 1 2 0 76.74241251964908 23.599268485112074 -2.276846807802502 0 0 0
7129 1 1 0 78.19921014552531 24.103234305441568 -1.6505469491662248 0 0 0
13724 1 2 0 78.17677355829954 24.094958948347678 -2.6113313118661078e-06 0 0 0
10001 1 2 0 80.70730482218995 20.695555055890065 -2.243122924266497 0 0 0
7128 1 1 0 80.62674399036541 22.247644236421685 -1.6430583743937945 0 0 0
13723 1 2 0 80.53076034567788 22.20555516705283 -3.85746568478738e-06 0 0 0
7077 1 1 0 84.57473811762284 19.896542668907987 -1.6551898230277877 0 0 0
10082 1 2 0 81.96688889937477 23.0852040624488 -2.1267296537004454 0 0 0
7130 1 1 0 83.5335828848402 22.844018564959637 -1.6378335755523985 0 0 0
10010 1 2 0 83.88554622694596 21.312165739523472 -2.204571006691321 0 0 0
13725 1 2 0 83.70486870871184 22.84507859875091 -3.4388429665082746e-06 0 0 0
10084 1 2 0 84.39343981936567 24.15321798445188 -2.222028128275732 0 0 0
10008 1 2 0 86.11056452592767 20.02635951739876 -2.30290875256694 0 0 0
7076 1 1 0 87.56046974478859 19.916117797635057 -1.5264653700577386 0 0 0