LAMMPS data file via write_data, version 2 Aug 2023, timestep = 157, units = metal

15492 atoms
2 atom types

6.978990984102055 197.06892047199358 xlo xhi
6.856761047139773 169.94716123046308 ylo yhi
-100 100 zlo zhi

Masses

1 28.085
2 15.999

Atoms # full

6607 1 1 0 7.63738704450728 8.551923003170185 -1.6498131769167745 0 0 0
9300 1 2 0 7.99820326248822 7.05886699931019 -2.2643174150010377 0 0 0
9301 1 2 0 8.736076680331038 9.674163092409096 -2.2110817438010257 0 0 0
6610 1 1 0 10.182985160210132 10.25394820325569 -1.6454369020596318 0 0 0
9306 1 2 0 11.422418159187524 9.295900938977596 -2.192299057458698 0 0 0
9305 1 2 0 10.5286175613663 11.770419517684868 -2.212099210580407 0 0 0
13065 1 2 0 10.134871576682972 10.284807078940505 -3.607791766992097e-06 0 0 0
9310 1 2 0 13.756103497870932 7.970949352296742 -2.2341423320179112 0 0 0
9667 1 2 0 17.443074853616096 7.483011184512957 -2.2377612591611573 0 0 0
6849 1 1 0 17.383001937599715 9.02857411688653 -1.6319747544780885 0 0 0
6613 1 1 0 12.985105581402465 9.314396056005686 -1.642906567191716 0 0 0
9311 1 2 0 13.722781203728648 10.731167202839481 -2.1217566983657004 0 0 0
6660 1 1 0 15.246224710406052 11.213724832748282 -1.6439139454803762 0 0 0
9384 1 2 0 16.229269925258343 10.028667063858792 -2.264292283320288 0 0 0
13068 1 2 0 12.997110057567589 9.248950170748104 -3.6944469065590606e-06 0 0 0
13115 1 2 0 15.365364415495295 11.27960739417014 -3.5882302831054552e-06 0 0 0
13304 1 2 0 17.17422281628618 8.926667079130892 -2.8216136804816156e-06 0 0 0
9673 1 2 0 20.688022185683945 7.953983134646797 -2.1871311525169537 0 0 0
6852 1 1 0 20.32295724421428 9.485970352095661 -1.6395045200002014 0 0 0
9668 1 2 0 18.771933067994592 9.77424883009207 -2.081298306142186 0 0 0
9670 1 2 0 21.085161854324408 10.806366198833047 -2.3159556468922657 0 0 0
9672 1 2 0 23.440044317184505 10.54803226502402 -1.4150688823766433 0 0 0
6851 1 1 0 22.243579496023354 11.676633956697072 -1.5133172222812263 0 0 0
13306 1 2 0 21.716478274246228 12.106106850346782 -3.775150724785062e-06 0 0 0
9681 1 2 0 23.19740211592102 7.412012303033064 -2.2862560982710622 0 0 0
13307 1 2 0 20.549280954204196 9.502624613734502 -2.3947735241101207e-06 0 0 0
6857 1 1 0 24.679485708549052 7.663381522280953 -1.645696738691752 0 0 0
9679 1 2 0 25.3932207393316 9.029593642728104 -2.2829972706761863 0 0 0
9802 1 2 0 28.112330970739315 7.065101743646424 -2.2552348453775157 0 0 0
6856 1 1 0 25.068197434767573 10.448393279676056 -1.4984136118389995 0 0 0
9680 1 2 0 25.61140088553078 11.831000037414217 -2.204387295399623 0 0 0
9798 1 2 0 28.19221523956782 11.72710146309849 -2.2698443003003552 0 0 0
6928 1 1 0 26.967000252358964 12.603497948530814 -1.6391994565299484 0 0 0
6931 1 1 0 29.41394740761519 7.88844511828103 -1.6467033886769709 0 0 0
9803 1 2 0 30.688487018167166 7.027046237347264 -2.2157244195856762 0 0 0
9813 1 2 0 33.25030703743069 7.547850629936369 -2.2613844283361337 0 0 0
6938 1 1 0 34.350240902654825 8.60573405207029 -1.6480737456976557 0 0 0
6930 1 1 0 29.511347100002162 10.97158377039884 -1.644859992341869 0 0 0
9800 1 2 0 29.513514718431246 9.431016381375006 -2.2468362324267264 0 0 0
9811 1 2 0 34.02019938412414 10.119282938353756 -2.241110108209615 0 0 0
6937 1 1 0 34.244374884038784 11.648508583165581 -1.643366593775156 0 0 0
9801 1 2 0 30.760696341730966 11.888213568980277 -2.2092227919134495 0 0 0
13392 1 2 0 34.18305093698392 11.586058006980567 -3.635177185626251e-06 0 0 0
13385 1 2 0 29.509343328895433 10.921958849082113 -3.158719269777846e-06 0 0 0
9814 1 2 0 35.80290436511522 8.073254126198117 -2.2156841168846495 0 0 0
6948 1 1 0 37.01815012045342 7.116225662450177 -1.6465411915326722 0 0 0
9828 1 2 0 38.39647059686088 7.759103688876457 -2.240734896112957 0 0 0
6947 1 1 0 39.457845110420635 8.844183748537594 -1.6436973271823228 0 0 0
9826 1 2 0 38.96099675772122 10.312009576933598 -2.215174939091613 0 0 0
6946 1 1 0 39.22345985244529 11.842628444200392 -1.6474761898805732 0 0 0
9812 1 2 0 35.69796396101259 12.189981958702699 -2.1923657818526165 0 0 0
13401 1 2 0 39.20780807511629 11.865340809413446 -3.519917246794899e-06 0 0 0
13402 1 2 0 39.49165026722004 8.886722027422515 -3.910297910552995e-06 0 0 0
13403 1 2 0 36.96065578636268 7.075607741154519 -4.346715562302309e-06 0 0 0
9829 1 2 0 40.90765855107148 8.301411442866254 -2.2161824295796633 0 0 0
6954 1 1 0 42.00337578243705 7.20161779945459 -1.6483969467397703 0 0 0
9701 1 2 0 43.403531496718934 7.770903055258871 -2.281929584774991 0 0 0
6867 1 1 0 44.81943455485712 8.273857777676847 -1.6448899779430743 0 0 0
9700 1 2 0 45.927435256350925 7.20316463619859 -2.207042540165042 0 0 0
9698 1 2 0 45.15315558141556 9.783881259114462 -2.21996876156238 0 0 0
6866 1 1 0 44.72134605999474 11.263746827653353 -1.646340383773345 0 0 0
9827 1 2 0 40.678559103824504 12.24676110248453 -2.2786332067258632 0 0 0
9699 1 2 0 43.239055845554844 11.678395759567737 -2.237167839608688 0 0 0
13322 1 2 0 44.77886681521291 8.290704566097075 -3.6059322134496736e-06 0 0 0
9688 1 2 0 45.77933229926562 12.357839572943139 -2.2543877378226336 0 0 0
13404 1 2 0 42.10266956642806 12.674529126496614 -3.7392770517352697e-06 0 0 0
13409 1 2 0 41.98874401486703 7.171444785573858 -3.817968873133781e-06 0 0 0
6868 1 1 0 47.43998947688083 6.891286999703324 -1.64495554501094 0 0 0
9696 1 2 0 48.402376414251584 8.073675352527436 -2.2616532140443586 0 0 0
6865 1 1 0 49.771048650292784 8.736254959262402 -1.6427799547767878 0 0 0
9697 1 2 0 50.98973863486645 7.788640031619308 -2.18846300195593 0 0 0
9686 1 2 0 49.99812602496446 10.23463506150633 -2.2672562876624727 0 0 0
6859 1 1 0 49.83437531963379 11.745080366879286 -1.6474974639099242 0 0 0
9684 1 2 0 48.42515456757265 12.325358150142653 -2.2478972208035373 0 0 0
9685 1 2 0 51.069173809042276 12.635958769597666 -2.2574509189703558 0 0 0
13323 1 2 0 47.493190230300115 6.911190575404434 -3.7399901833220134e-06 0 0 0
13314 1 2 0 49.84381369075613 11.756448901268442 -3.593841352352456e-06 0 0 0
6871 1 1 0 52.51658422833879 7.5477727984816045 -1.643155645968095 0 0 0
9705 1 2 0 53.48955350958901 8.717984379206232 -2.257472109042912 0 0 0
9706 1 2 0 56.10466001275236 8.627493244310896 -2.227372746050173 0 0 0
6870 1 1 0 54.8225997561503 9.47540412110683 -1.64771658719609 0 0 0
9703 1 2 0 54.814391147409445 11.00858742098119 -2.248698663435292 0 0 0
13325 1 2 0 54.836805930959265 9.50920613129612 -2.2091222553320828e-06 0 0 0
6869 1 1 0 54.85966132493462 12.54489012495497 -1.6467160193763126 0 0 0
13324 1 2 0 54.87120683105834 12.516354778769102 -5.2637993661367415e-06 0 0 0
6877 1 1 0 57.46734719286339 7.910769121073651 -1.6468249457318287 0 0 0
9715 1 2 0 58.70643481074635 8.80894049298162 -2.2475613867577815 0 0 0
9716 1 2 0 61.30469139357908 8.710963860796289 -2.2291078605480417 0 0 0
6885 1 1 0 62.66860034445764 8.000776955167932 -1.6500721152761881 0 0 0
6876 1 1 0 60.03393309710894 9.57040806312695 -1.6457746537179292 0 0 0
9713 1 2 0 60.10546590439692 11.11000245727433 -2.239098628827834 0 0 0
13332 1 2 0 57.48280578420204 7.897958158316695 -3.214817462107691e-06 0 0 0
6875 1 1 0 60.122481370583635 12.650634952876986 -1.6465810604531845 0 0 0
13340 1 2 0 62.687289285162265 8.011165182439033 -3.4684040366545468e-06 0 0 0
13331 1 2 0 60.01836597791283 9.600674558696939 -3.7554490255210196e-06 0 0 0
13330 1 2 0 60.12041158476585 12.63022536953475 -4.029420215857407e-06 0 0 0
9727 1 2 0 63.911681961297404 8.88699864879514 -2.2556138646480672 0 0 0
9728 1 2 0 66.52345354374334 8.960650925233798 -2.208819502505756 0 0 0
6891 1 1 0 67.56186298016236 7.807545034760181 -1.647750962187338 0 0 0
6884 1 1 0 65.18218982314374 9.734539086177909 -1.6457082522275166 0 0 0
9725 1 2 0 65.1274771941095 11.275810075112455 -2.2373937239323203 0 0 0
13346 1 2 0 67.52797620379147 7.753150541595575 -2.876657669128598e-06 0 0 0
13339 1 2 0 65.16095408157287 9.764826834122596 -3.860498179853954e-06 0 0 0
9737 1 2 0 69.03926513089095 8.264305213863224 -2.219424050107804 0 0 0
9738 1 2 0 71.62637595184758 8.70824489708056 -2.1673148304948464 0 0 0
6897 1 1 0 72.2591999477948 7.270942899815956 -1.6465710542086491 0 0 0
9747 1 2 0 73.79123324854538 7.089184901625067 -2.2044021674993646 0 0 0
6890 1 1 0 70.17497294436983 9.31720957609187 -1.644076319489021 0 0 0
9735 1 2 0 69.96480468896021 10.84159196486891 -2.23888608846483 0 0 0
6889 1 1 0 70.37028772985094 12.338376741322444 -1.6477177691574196 0 0 0
13344 1 2 0 70.36969884517704 12.337589579852928 -4.566097780745794e-06 0 0 0
13352 1 2 0 72.27168545482223 7.24886380085776 -3.6829669606192308e-06 0 0 0
13345 1 2 0 70.10916553147734 9.368129980068636 -2.821942339783629e-06 0 0 0
6896 1 1 0 75.22665536818825 7.690658005924391 -1.6468625600482445 0 0 0
9745 1 2 0 75.21480101415112 9.276395724684596 -2.1904109028684253 0 0 0
6895 1 1 0 75.39646196111366 10.860741156492836 -1.6438636730808383 0 0 0
9746 1 2 0 76.90712951867143 11.192673880430766 -2.2021970483687805 0 0 0
6898 1 1 0 78.42709402328376 11.478674022952195 -1.6424041184490599 0 0 0
9751 1 2 0 79.34255007072943 10.132107854979626 -2.1647553362296073 0 0 0
9741 1 2 0 74.41377058827962 12.12419573747887 -2.1812394148330205 0 0 0
13351 1 2 0 75.36606515760491 7.741654329459589 -3.2840292619345573e-06 0 0 0
13353 1 2 0 78.57883252054748 11.486493097714353 -2.8505849403704883e-06 0 0 0
13350 1 2 0 75.276396799921 10.83236028153978 -2.9333229634460424e-06 0 0 0
6901 1 1 0 80.33887834506415 8.844865374883335 -1.642641949030465 0 0 0
9755 1 2 0 80.20722900262365 7.21293657429872 -2.1557189212706174 0 0 0
9765 1 2 0 84.42919326471659 8.668256083676305 -2.1941210875386337 0 0 0
9756 1 2 0 81.84585494670598 9.240829030207937 -2.1872634482423696 0 0 0
6906 1 1 0 83.30006002851978 9.793583680062811 -1.6436949046248148 0 0 0
9762 1 2 0 83.33231340339228 11.38886886965714 -2.174398409953401 0 0 0
13361 1 2 0 83.40133773590762 9.829556903221402 -3.7722748436891293e-06 0 0 0
13372 1 2 0 85.2342855065525 7.388408822479753 -2.2910965154652783e-06 0 0 0
13356 1 2 0 80.18525796688537 8.817760298849826 -3.602832140720218e-06 0 0 0
6917 1 1 0 85.28501406771728 7.317910134972073 -1.6463348652370395 0 0 0
9777 1 2 0 86.82480051747896 7.394113228149157 -2.242252081210786 0 0 0
6913 1 1 0 88.34951745891176 7.574827732867926 -1.646151268327452 0 0 0
9769 1 2 0 88.81844251073368 9.049113482974235 -2.207951369142078 0 0 0
9768 1 2 0 87.65426776063444 11.499228549971724 -2.18124558780976 0 0 0
6908 1 1 0 88.95394938283546 10.591758375821648 -1.6447520549355148 0 0 0
9767 1 2 0 90.43527968967818 11.044378960242666 -2.229239065768994 0 0 0
13363 1 2 0 88.95167247452724 10.646924423084792 -1.1236011033509872e-06 0 0 0
9778 1 2 0 94.27231123279964 7.69551167906904 -2.217327681070832 0 0 0
6909 1 1 0 91.97468612414718 11.223776248517687 -1.6530518549220325 0 0 0
6914 1 1 0 94.28940479230471 9.248458358940782 -1.6453331862182983 0 0 0
9771 1 2 0 92.99411321225108 10.072718289278269 -2.258061500728902 0 0 0
9779 1 2 0 95.6849385678964 9.96479236419476 -2.171660259085565 0 0 0
13364 1 2 0 91.96522689671855 11.159901347541698 -8.707809206152265e-07 0 0 0
9785 1 2 0 97.82083164669655 8.331242178764914 -2.202714340436871 0 0 0
6918 1 1 0 97.24870316530563 9.798431297780485 -1.644689003126845 0 0 0
9784 1 2 0 98.06830989987361 11.129527858700683 -2.2308088245818984 0 0 0
6919 1 1 0 98.68015249909149 12.567724356927013 -1.6488493683520873 0 0 0
13373 1 2 0 97.34283246567114 9.80081033298844 -1.0083437545628949e-07 0 0 0
9307 1 2 0 8.817373861729857 13.743411939015193 -2.2379200797194994 0 0 0
6612 1 1 0 10.301736722594693 13.306702269757682 -1.646271660725667 0 0 0
6611 1 1 0 7.308504048819332 14.03214347885329 -1.6458055970598873 0 0 0
9309 1 2 0 11.491353834128434 14.305949259074792 -2.229317818949234 0 0 0
9378 1 2 0 12.274157931750887 16.88945285408557 -2.2164512585371057 0 0 0
13067 1 2 0 10.319578417718954 13.369982223199868 -2.986786770572032e-06 0 0 0
9376 1 2 0 8.389855720706096 17.648756614921588 -2.1838218393973206 0 0 0
6659 1 1 0 12.039108626975443 18.42927381608399 -1.648668084558058 0 0 0
13114 1 2 0 12.04147431682059 18.4119433785522 -3.1110370160196194e-06 0 0 0
9383 1 2 0 15.625472065429507 12.72462869630977 -2.227427967186368 0 0 0
6657 1 1 0 12.631451654595363 15.371736933509567 -1.6470435705935347 0 0 0
9379 1 2 0 14.14404237492183 14.962115568368146 -2.1931726819593647 0 0 0
6661 1 1 0 15.566744728959616 14.29087324129304 -1.6489296968567626 0 0 0
9385 1 2 0 16.884915244779272 15.16210412768766 -2.205859469300612 0 0 0
6854 1 1 0 17.80349813774062 16.44332679065442 -1.6444775588520155 0 0 0
13116 1 2 0 15.584725048839386 14.29588529378576 -3.86960425597043e-06 0 0 0
9677 1 2 0 17.055262698304162 17.83012404392512 -2.1677553510770866 0 0 0
13309 1 2 0 17.849390491964773 16.366349957177167 -4.277857630222664e-06 0 0 0
13112 1 2 0 12.606925595765919 15.360592077035227 -3.803171173704507e-06 0 0 0
9671 1 2 0 22.757968154106102 13.061639903748727 -2.2624721456439016 0 0 0
9674 1 2 0 21.815682251912023 15.493946767022209 -2.18714671715733 0 0 0
6853 1 1 0 23.074457183968587 14.580704166615048 -1.648123418788025 0 0 0
9676 1 2 0 19.373482209449094 16.490448863189936 -2.21460042747384 0 0 0
6855 1 1 0 20.917750112883496 16.76531578551 -1.645179969883829 0 0 0
13308 1 2 0 23.170815036668753 14.557574134875015 -4.51602892543135e-06 0 0 0
9678 1 2 0 21.70134202205611 18.11800257545066 -2.227292229231619 0 0 0
13310 1 2 0 20.8640466621598 16.84688209869108 -9.766571892593165e-06 0 0 0
13383 1 2 0 27.091592865343284 12.72970005160955 -3.82131239507321e-06 0 0 0
9797 1 2 0 26.95034815289512 14.132941119582346 -2.2392627283302518 0 0 0
9675 1 2 0 24.49296426024673 15.234393103236474 -2.2278511672779397 0 0 0
6929 1 1 0 26.043231861480493 15.393215820545228 -1.648387990890194 0 0 0
9799 1 2 0 26.824733245344103 16.742912302654062 -2.2034948558718237 0 0 0
6935 1 1 0 28.193109670227155 17.515134962692034 -1.6476889776135324 0 0 0
13384 1 2 0 25.993587145322447 15.428395661220764 -1.1416538062262265e-05 0 0 0
13390 1 2 0 28.223952545033185 17.50895967154032 -2.638567334807277e-05 0 0 0
9806 1 2 0 33.16757057778493 12.778000143706489 -2.191787794596446 0 0 0
6933 1 1 0 31.656284114483306 13.161760040129694 -1.6439767421284626 0 0 0
9805 1 2 0 31.224496297556687 14.655060033594413 -2.230651817228419 0 0 0
6934 1 1 0 31.03196644921698 16.20850814468401 -1.6482375006734533 0 0 0
9807 1 2 0 29.581119799961034 16.790995989568856 -2.2120815268946896 0 0 0
9808 1 2 0 32.26338312585281 17.184467207262244 -2.1984717659649835 0 0 0
6942 1 1 0 33.57314431288067 18.050993761415704 -1.6473164222185004 0 0 0
13397 1 2 0 33.58489684653348 18.051119336089226 -4.591721576533511e-05 0 0 0
13388 1 2 0 31.570442840064917 13.22692179280203 -4.381127751671114e-06 0 0 0
13389 1 2 0 31.038466440221594 16.19601793924282 -2.0090777697189984e-05 0 0 0
9817 1 2 0 38.163067573996244 12.970602347348352 -2.224534652629885 0 0 0
6940 1 1 0 36.6735737968573 13.400665554113658 -1.644676216581623 0 0 0
9816 1 2 0 36.17340340525678 14.869421712468636 -2.220641650460627 0 0 0
6941 1 1 0 36.237766139370926 16.42968935912327 -1.6484468581928469 0 0 0
9832 1 2 0 40.1374211368497 15.886187793594766 -2.1605570082970202 0 0 0
9818 1 2 0 34.958659783959995 17.318596275445756 -2.2217784371889993 0 0 0
9819 1 2 0 37.657606051997924 17.07000563940669 -2.2283329702144807 0 0 0
6951 1 1 0 39.200651479214876 17.16650913926196 -1.6456294901431159 0 0 0
13396 1 2 0 36.206263428748734 16.453690538797346 -2.5830062800747704e-05 0 0 0
13406 1 2 0 39.137944942682154 17.215833837230523 -2.6872988117730226e-05 0 0 0
13395 1 2 0 36.68399431491492 13.466739448339496 -1.1963813939771645e-05 0 0 0
6949 1 1 0 42.10956230657933 12.7145120098433 -1.6452452046367696 0 0 0
6950 1 1 0 41.70021739693486 15.65082720866973 -1.644003961722995 0 0 0
9831 1 2 0 42.35994720068617 14.247986068724284 -2.2033377232836058 0 0 0
9833 1 2 0 42.67275493749439 16.849880254300473 -2.2291650149717346 0 0 0
6957 1 1 0 44.11302978509117 17.403515459539616 -1.642041563805626 0 0 0
9694 1 2 0 45.38523124526864 16.568330112094646 -2.2590175083918242 0 0 0
13405 1 2 0 41.704063632517624 15.650307443143133 -3.7533809839273326e-06 0 0 0
13412 1 2 0 44.13082409400523 17.32191258687884 -2.7314832338984107e-06 0 0 0
6860 1 1 0 47.11193827592664 13.093507409406012 -1.6458916994384964 0 0 0
9687 1 2 0 47.12863454748038 14.608337406864528 -2.2611442416500256 0 0 0
6863 1 1 0 46.842414468677475 16.098615257046568 -1.6481166572645003 0 0 0
9693 1 2 0 48.05785992148218 17.025212906537682 -2.2427883891827745 0 0 0
9691 1 2 0 50.62815583019342 17.76985083349081 -2.2192815437632136 0 0 0
6864 1 1 0 49.114754531090234 18.132440804461897 -1.6465308994168297 0 0 0
9689 1 2 0 51.572449204163 15.237969792411986 -2.213085015808274 0 0 0
13319 1 2 0 49.1276260849175 18.147617907308653 -1.911975663690055e-05 0 0 0
13318 1 2 0 46.83326525390831 16.114391411139156 -3.0011895085844356e-06 0 0 0
6861 1 1 0 52.08281801215198 13.774716195633978 -1.6462542316821178 0 0 0
9690 1 2 0 53.58743002628125 13.42374665217583 -2.2173098537421234 0 0 0
9704 1 2 0 56.200499938911655 13.275719238371856 -2.248305839200856 0 0 0
6862 1 1 0 51.81878696369755 16.77059546368581 -1.6460176418635981 0 0 0
9692 1 2 0 53.30226142359132 17.22775922555408 -2.2066072805710237 0 0 0
6874 1 1 0 54.40325957728442 18.323515440365224 -1.646162095698186 0 0 0
9710 1 2 0 55.8976176048232 17.94144022293079 -2.236345939409318 0 0 0
13317 1 2 0 51.79963979276207 16.795515996024726 -1.8504251759819532e-05 0 0 0
13316 1 2 0 52.07662223445744 13.76152002610903 -1.0917419097347323e-05 0 0 0
13329 1 2 0 54.450928108267 18.340795285050294 -1.827018088622288e-05 0 0 0
6873 1 1 0 57.27024175134611 17.226149719892113 -1.6471814829257867 0 0 0
13328 1 2 0 57.26467043812556 17.238697716437677 -1.9071006748998446e-05 0 0 0
9708 1 2 0 57.33585150719231 15.687208154168546 -2.2346668626364457 0 0 0
9709 1 2 0 58.81977005029781 13.462484356567055 -2.2377853246910155 0 0 0
9714 1 2 0 61.447285979916366 13.43229139627344 -2.23281694856829 0 0 0
6872 1 1 0 57.45182398337959 14.15463773606421 -1.6461723610884296 0 0 0
6880 1 1 0 62.636684731635036 14.410966423305778 -1.64634033773865 0 0 0
9720 1 2 0 62.40308902291327 15.946642331239508 -2.2186287413603374 0 0 0
6881 1 1 0 62.53768333237403 17.500392114960242 -1.6477149036429268 0 0 0
9711 1 2 0 58.599395046299776 18.010286209039702 -2.22687239357718 0 0 0
9722 1 2 0 61.26636148431071 18.42331952506703 -2.2075549621359087 0 0 0
13335 1 2 0 62.63731558159045 14.428350768617674 -1.1397847871081712e-05 0 0 0
13327 1 2 0 57.449072658446816 14.16255625628895 -1.2073290328572008e-05 0 0 0
13336 1 2 0 62.52255730068287 17.513464731288845 -1.9986990304574636e-05 0 0 0
9721 1 2 0 64.05115391482126 13.77935285717828 -2.220546703932845 0 0 0
6883 1 1 0 65.26304745297547 12.816443212355669 -1.6467321736970906 0 0 0
9726 1 2 0 66.66255593073424 13.454543751360458 -2.2317335809086627 0 0 0
6886 1 1 0 67.97996600837845 14.25059877285425 -1.6462427257184582 0 0 0
9730 1 2 0 67.95745449748752 15.793156640712374 -2.2298541310863293 0 0 0
6887 1 1 0 68.05223939042452 17.340427336301442 -1.6466898782448838 0 0 0
9723 1 2 0 63.98689561120755 18.078731610142867 -2.2084504894470123 0 0 0
9732 1 2 0 66.73432895137968 18.18701627118156 -2.2163274108590842 0 0 0
13341 1 2 0 67.9859373449313 14.264424566208866 -1.1341724079397071e-05 0 0 0
13338 1 2 0 65.25479742654198 12.787780513422994 -4.447923095735908e-06 0 0 0
13342 1 2 0 68.03991889135379 17.36388716776932 -1.8894970734056956e-05 0 0 0
9736 1 2 0 71.86589028228956 12.711248125464648 -2.2215645742446384 0 0 0
9731 1 2 0 69.30760110169625 13.457572386663484 -2.2292653654372967 0 0 0
6892 1 1 0 73.3032159343925 13.287829224861062 -1.6458538247298857 0 0 0
9740 1 2 0 73.34166372343101 14.895601590898991 -2.1624676136736967 0 0 0
6893 1 1 0 73.40954054625136 16.51055853438153 -1.6444478802726685 0 0 0
9742 1 2 0 72.21315472791224 17.632423337830815 -2.156119928930806 0 0 0
9733 1 2 0 69.49800081726157 17.943304767764985 -2.1917793690094376 0 0 0
13347 1 2 0 73.40853967894076 13.305757162634125 -4.127603169694115e-06 0 0 0
13348 1 2 0 73.30730384822752 16.499652296519685 -1.1292057238120867e-05 0 0 0
9750 1 2 0 78.61708051348883 13.08735797326727 -2.1536472790807966 0 0 0
9752 1 2 0 77.52221082616259 15.907201510169214 -2.1614044616126513 0 0 0
6899 1 1 0 78.63749203422073 14.70432616341777 -1.641936150239651 0 0 0
9743 1 2 0 74.92994673628334 16.984409553963832 -2.1509847672372184 0 0 0
6900 1 1 0 76.51211653964336 17.196391104771795 -1.647759192302955 0 0 0
13355 1 2 0 76.60866656755579 17.195967311217434 -7.959047025370048e-06 0 0 0
13354 1 2 0 78.49233352394647 14.693666077981218 -4.375183723253207e-06 0 0 0
6905 1 1 0 83.70971547192661 12.943478221987222 -1.6476104486278123 0 0 0
9753 1 2 0 80.14316566212965 15.168845685623413 -2.1597849482049676 0 0 0
6907 1 1 0 81.68589212882124 15.487626328674509 -1.6452011924122951 0 0 0
9763 1 2 0 82.74743732314715 14.255674345271192 -2.173242786357795 0 0 0
9766 1 2 0 81.86251136896071 17.090062813440454 -2.1915934883031913 0 0 0
13360 1 2 0 83.62983026915799 12.978071920830532 -4.42490042623431e-06 0 0 0
13362 1 2 0 81.8097483732406 15.502064650880733 -4.343041108019763e-06 0 0 0
13365 1 2 0 86.74837300794651 12.794070486834345 -3.597387529462967e-06 0 0 0
9764 1 2 0 85.27074538521192 13.084380054097274 -2.216980031791906 0 0 0
6910 1 1 0 86.81206079457954 12.845651950590092 -1.6511968070005714 0 0 0
9772 1 2 0 87.59955257532586 14.173471314519746 -2.262080162540193 0 0 0
9773 1 2 0 90.21008775613886 13.75909009205879 -1.8540989963699737 0 0 0
6912 1 1 0 88.9657488960909 14.801067636346026 -1.6010675002789867 0 0 0
9775 1 2 0 89.40757206451514 16.247637453205964 -2.252781513941505 0 0 0
6967 1 1 0 88.87064889528295 17.692045796812657 -1.6587019118722701 0 0 0
9856 1 2 0 87.30625305436513 17.75261281998666 -2.244804679213335 0 0 0
13367 1 2 0 88.6729266445984 15.00159371095441 -8.529503171954832e-07 0 0 0
9770 1 2 0 92.55176738630229 12.691128200019014 -2.2065565545548655 0 0 0
6911 1 1 0 91.82490421775093 14.048487820370434 -1.6034271594206022 0 0 0
9774 1 2 0 92.23518768055945 15.472718951439889 -2.34152246876654 0 0 0
6921 1 1 0 92.75814995066928 16.828572476936095 -1.5382319283911285 0 0 0
9788 1 2 0 94.37985147858416 16.65976835863956 -1.5419959487082142 0 0 0
6922 1 1 0 95.76887311338652 17.514568435016457 -1.5368668754966024 0 0 0
9789 1 2 0 92.41365824618758 18.292648689451504 -2.2377130669263945 0 0 0
13376 1 2 0 92.11575019701456 16.85657736365946 -8.316694203576218e-07 0 0 0
13377 1 2 0 96.34231093696964 17.798941443159542 -6.68160591945555e-08 0 0 0
13366 1 2 0 92.20348010442136 14.145631182924442 -5.464173777272582e-07 0 0 0
9786 1 2 0 97.84123636584246 13.904191904376368 -2.209609914221683 0 0 0
6618 1 1 0 101.7179152731317 13.18887151231925 -1.646149844436716 0 0 0
9319 1 2 0 100.22998216913905 12.742138858994098 -2.2057791399257622 0 0 0
6920 1 1 0 97.91733257833933 15.465782053644835 -1.640092352944313 0 0 0
9404 1 2 0 99.34637812980372 16.174455560511642 -2.0879106703733266 0 0 0
9787 1 2 0 96.7869424303464 16.47122572499353 -2.3197713867222554 0 0 0
6673 1 1 0 100.07363916562963 17.595176261211115 -1.633879643549868 0 0 0
9318 1 2 0 101.62198179778528 17.376683201010493 -2.1708567771861347 0 0 0
13073 1 2 0 101.72825644673394 13.21774592959303 -3.029910774180471e-06 0 0 0
13375 1 2 0 97.7546154493659 15.379416046968894 -2.5827943508400302e-08 0 0 0
13128 1 2 0 100.01733765368286 17.74175384326961 -2.9654103215551103e-06 0 0 0
6658 1 1 0 9.078662529073698 19.051963076619263 -1.6426875165541448 0 0 0
9381 1 2 0 8.153298924892058 20.285610068756853 -2.2357279585435164 0 0 0
9380 1 2 0 10.617777961527654 19.059457588775214 -2.2354615309010053 0 0 0
9442 1 2 0 7.334258570350187 22.74985236217369 -2.224216939564257 0 0 0
9445 1 2 0 12.046181539771805 23.98247416311835 -2.2387208012391087 0 0 0
6700 1 1 0 7.701464948558361 24.234481886821307 -1.645961037525917 0 0 0
9382 1 2 0 13.224295778881832 19.420493200885645 -2.2289294611456554 0 0 0
6702 1 1 0 14.275525433548822 20.554722571401708 -1.6466333187533553 0 0 0
9448 1 2 0 15.778095030142005 20.187298725768603 -2.2329836711976694 0 0 0
6975 1 1 0 17.104141265745415 19.39997592834313 -1.6450542349282355 0 0 0
9447 1 2 0 13.857484975791444 22.046448227148208 -2.217749633292022 0 0 0
6703 1 1 0 13.55210219378908 23.57117643684248 -1.6508328166639554 0 0 0
13157 1 2 0 14.266708263862935 20.55709118177009 -2.653144034927778e-06 0 0 0
13430 1 2 0 17.109511092625265 19.444633187474103 -5.560868046696888e-06 0 0 0
9868 1 2 0 18.465031152501037 20.13311078698525 -2.2342702837737676 0 0 0
9869 1 2 0 21.125888511543423 20.69514120260582 -2.181722718954103 0 0 0
6976 1 1 0 22.225715232249303 19.58622938741791 -1.6431941936985883 0 0 0
9870 1 2 0 23.72115292728055 20.091137084684405 -2.191187099627992 0 0 0
6977 1 1 0 19.63537176293224 21.144289471443823 -1.6455405476936982 0 0 0
9871 1 2 0 19.446814729993626 22.653340425418737 -2.2646649312962848 0 0 0
7035 1 1 0 19.01566581940912 24.114829343481635 -1.6464732728513978 0 0 0
13432 1 2 0 19.581479731788143 21.145245672131402 -1.0976662659012294e-05 0 0 0
13431 1 2 0 22.282696976062176 19.504018817157206 -1.2466365067869048e-05 0 0 0
13490 1 2 0 19.036134051305808 24.126055569079075 -3.6501384624920092e-06 0 0 0
7002 1 1 0 27.799199768604176 20.587901460423186 -1.6476890429719258 0 0 0
9809 1 2 0 28.091921572626266 19.060132200819453 -2.2234653792702734 0 0 0
9907 1 2 0 26.29913130466761 21.084766572265735 -2.1999321714320357 0 0 0
7003 1 1 0 24.734805526486017 21.313081528881835 -1.6488623827115703 0 0 0
9909 1 2 0 24.10615799537381 22.76536887548493 -2.1853538988309364 0 0 0
9908 1 2 0 29.066121693228926 21.52199079375767 -2.199837240662724 0 0 0
13457 1 2 0 27.789138429744863 20.61289273595054 -4.87349280139412e-05 0 0 0
13458 1 2 0 24.765190160552333 21.30622283785808 -2.6717655197152367e-05 0 0 0
9820 1 2 0 33.49882589101705 19.62380995453761 -2.195464689087294 0 0 0
7004 1 1 0 33.330234656358236 21.194603915730582 -1.6489867692369355 0 0 0
7005 1 1 0 30.385359843664467 22.385568071801863 -1.6474858064488076 0 0 0
9910 1 2 0 31.85870374820938 21.79693008157056 -2.188274787682667 0 0 0
9911 1 2 0 34.64127967642706 22.08814924250573 -2.2060901552663434 0 0 0
9912 1 2 0 30.187160788765564 23.939190360521494 -2.2105839446460003 0 0 0
13460 1 2 0 30.393179082469626 22.355536963536895 -9.556774323201081e-05 0 0 0
13459 1 2 0 33.33417502201749 21.213982048971594 -0.00010237264956453099 0 0 0
9834 1 2 0 39.926870766969095 18.51794629115812 -2.2533575586522185 0 0 0
6980 1 1 0 40.441674546564705 19.958212212044746 -1.6444959170170206 0 0 0
7008 1 1 0 35.8579542710847 23.09424493902234 -1.6449635772460809 0 0 0
9916 1 2 0 37.40055833010192 22.781423013071915 -2.21655220804216 0 0 0
7009 1 1 0 38.951157817137755 22.564438327109876 -1.6416968784215356 0 0 0
9875 1 2 0 39.328656891128645 21.04867837698528 -2.167033356024896 0 0 0
9918 1 2 0 40.207433304588605 23.513823726107752 -2.208144213329773 0 0 0
13463 1 2 0 35.86828643436298 22.98140719780079 -0.00016756668256572314 0 0 0
13464 1 2 0 38.909660141485645 22.717391258011585 -0.00014163541529293173 0 0 0
13435 1 2 0 40.50895578050015 19.90929044963043 -6.465137718104565e-05 0 0 0
9873 1 2 0 41.93162459270158 20.358304181719134 -2.2489586805133017 0 0 0
6979 1 1 0 43.467413952969025 20.299845410993743 -1.6430556991942624 0 0 0
9842 1 2 0 44.26328920287264 18.953524212698703 -2.164271519898374 0 0 0
9874 1 2 0 44.35910818891274 21.540248381498948 -2.2488312094519753 0 0 0
6982 1 1 0 45.6572741342872 22.369326615603892 -1.6443432258359092 0 0 0
13434 1 2 0 43.40418224597376 20.367215437963026 -3.594496447362338e-05 0 0 0
9878 1 2 0 45.39455632076647 23.91321845303426 -2.162606788001396 0 0 0
13437 1 2 0 45.69778176699252 22.27669859296699 -5.7286895627608075e-05 0 0 0
9695 1 2 0 48.570323308920955 19.57233269427074 -2.2266389719182893 0 0 0
6981 1 1 0 48.481387659388346 21.114167702242906 -1.6486817942390162 0 0 0
9876 1 2 0 47.105150209094575 21.826078090813052 -2.2414220576301744 0 0 0
9877 1 2 0 49.83632223159389 21.834647209570083 -2.2543144311446346 0 0 0
6984 1 1 0 51.11702449637879 22.669239441497737 -1.641941527500177 0 0 0
9881 1 2 0 50.80431594467796 24.210790407783062 -2.1351010068175857 0 0 0
13436 1 2 0 48.46361682652759 21.15509770553126 -2.6514486936303295e-05 0 0 0
13439 1 2 0 51.15804892668773 22.559379027252522 -1.239674984403562e-05 0 0 0
9712 1 2 0 53.887387729537174 19.776772982981136 -2.2304730713522725 0 0 0
9879 1 2 0 52.56291866528642 22.106480309744786 -2.240633396501773 0 0 0
6983 1 1 0 53.89737116899139 21.315936577650138 -1.6449056169748288 0 0 0
9880 1 2 0 55.3361683780647 21.93676408482836 -2.1717930593524546 0 0 0
6989 1 1 0 56.34387420288699 23.140231294574935 -1.6433407305774999 0 0 0
13438 1 2 0 53.85253065711598 21.358282268390454 -1.2012360124234205e-05 0 0 0
13444 1 2 0 56.44391570073637 23.211678122038897 -1.138788920181117e-05 0 0 0
6882 1 1 0 59.80044933934945 18.987635163389 -1.6466302042870091 0 0 0
9724 1 2 0 59.43175000227457 20.50429030065004 -2.204156994583165 0 0 0
9887 1 2 0 57.88817192882934 22.80692440989888 -2.2119344675545696 0 0 0
6988 1 1 0 59.289000794455454 22.065082159254576 -1.6477617921704428 0 0 0
9888 1 2 0 60.66003088873899 22.819227043813697 -2.2079195006164385 0 0 0
6991 1 1 0 62.14050479934336 23.331414853167896 -1.646241298826448 0 0 0
13337 1 2 0 59.83243398495295 18.995217396739232 -2.5836711355994852e-05 0 0 0
13446 1 2 0 62.13180482217594 23.256640650521224 -7.211733181426414e-05 0 0 0
13443 1 2 0 59.242802312277874 22.091961724498766 -3.4525753291003094e-05 0 0 0
6888 1 1 0 65.3292509957514 18.879359643079315 -1.6469187418833 0 0 0
9734 1 2 0 65.21996163531227 20.42571635086255 -2.221363752823361 0 0 0
9890 1 2 0 63.44061334607446 22.46550357421658 -2.220145069928108 0 0 0