LAMMPS data file via write_data, version 2 Aug 2023, timestep = 121, units = metal

15876 atoms
2 atom types

8.127244651248162 198.796948055347 xlo xhi
5.603095304253396 172.8048569167217 ylo yhi
-100 100 zlo zhi

Masses

1 28.085
2 15.999

Atoms # full

6629 1 1 0 9.243535221389786 7.327598059821542 -1.649388477706134 0 0 0
9286 1 2 0 10.355565524794383 6.259086385507518 -2.237345044601246 0 0 0
6630 1 1 0 11.77895178458711 5.6795259458193845 -1.6469626968045077 0 0 0
9290 1 2 0 13.077316937152819 6.542589014477276 -2.21602690599049 0 0 0
9288 1 2 0 9.602718111516266 8.811786777341226 -2.2740766669607257 0 0 0
6636 1 1 0 9.638839171618836 10.329314595594036 -1.6441702440349766 0 0 0
9302 1 2 0 12.572859623478957 9.150067550631599 -2.189131138562998 0 0 0
6638 1 1 0 13.60969269917636 7.992042539013974 -1.6432688165775993 0 0 0
6637 1 1 0 12.469640467791626 10.701157143566933 -1.640798593847726 0 0 0
9301 1 2 0 8.326191910004749 11.133438063388859 -2.215430440646332 0 0 0
9669 1 2 0 17.1009304904682 6.787680558765942 -2.2269638849891056 0 0 0
9304 1 2 0 15.070936751820103 8.396689756853382 -2.263372249655399 0 0 0
6867 1 1 0 16.58691252766001 8.237473853731101 -1.647963737490635 0 0 0
9666 1 2 0 17.435630467109167 9.508126311974912 -2.2664267927227706 0 0 0
6865 1 1 0 18.3504318095287 10.732340323641782 -1.645906533921327 0 0 0
6874 1 1 0 20.829180520481437 5.818803751567771 -1.6447411215647085 0 0 0
9677 1 2 0 21.46621171242359 7.236420202345705 -2.228135909397685 0 0 0
9671 1 2 0 22.41268326337578 9.774110127944724 -2.193827017302079 0 0 0
6872 1 1 0 22.667180904865358 8.226545979540541 -1.6510059069700775 0 0 0
9678 1 2 0 24.161783351737746 7.762969140755038 -2.2312538777609814 0 0 0
9667 1 2 0 19.8716722620862 10.465216272351569 -2.209094424825132 0 0 0
6868 1 1 0 21.35200527359156 10.9189185306083 -1.645261089140736 0 0 0
9686 1 2 0 26.93334907497669 7.599481713019358 -2.2704437146600083 0 0 0
9697 1 2 0 28.815088123853627 5.860558945592975 -1.4812021973619436 0 1 0
6884 1 1 0 28.412712260425245 7.433485577751386 -1.5268224094057432 0 0 0
9695 1 2 0 29.719530747643503 8.048693394963143 -2.3340555615011334 0 0 0
6877 1 1 0 25.594940941810425 8.357310347494812 -1.6407108208821797 0 0 0
9683 1 2 0 25.71349102363258 9.941828201962288 -2.1277625931558304 0 0 0
6875 1 1 0 26.904535204547795 10.975685601436203 -1.6407825740939788 0 0 0
9684 1 2 0 28.393501560987133 10.52153809735193 -2.221986701219766 0 0 0
6879 1 1 0 29.833448923685985 11.114357406158812 -1.6399913078518282 0 0 0
13490 1 2 0 26.914882053690036 11.062630332608686 -1.8526515792660134e-05 0 0 0
13499 1 2 0 28.30988079712807 8.103203262016308 -2.81187615483871e-06 0 0 0
9696 1 2 0 32.44681046100209 7.766910424322475 -2.2497370316530487 0 0 0
6890 1 1 0 33.96751334073475 7.444125958080566 -1.6512477663504856 0 0 0
9707 1 2 0 34.46250680817243 5.9644758331182155 -2.228978308577798 0 0 0
9689 1 2 0 31.148252235512484 10.185676593385896 -2.0663444724701927 0 0 0
6883 1 1 0 31.13489403018066 8.568477814815395 -1.642714050678975 0 0 0
9704 1 2 0 34.96642154136303 8.661317619363032 -2.2120999250132107 0 0 0
6888 1 1 0 35.31895149809135 10.180241848310576 -1.6431110953461059 0 0 0
13498 1 2 0 31.150271610582074 8.356818396294871 -1.1783891413072e-05 0 0 0
13505 1 2 0 33.983756732516945 7.415727050248507 -4.97935492989348e-06 0 0 0
6896 1 1 0 39.807092884727936 6.2556182835616285 -1.503717632738362 0 0 0
9714 1 2 0 39.8970037318507 7.746435151976933 -2.261033094107469 0 0 0
9717 1 2 0 41.35878054184342 5.781509698060468 -1.3686268129478871 0 0 0
6895 1 1 0 40.35870133034016 9.241331960574001 -1.6505106825097964 0 0 0
9710 1 2 0 39.24697868751831 10.29362508651245 -2.23172711061921 0 0 0
9705 1 2 0 36.741510370699814 10.752188772620814 -2.2487436964192082 0 0 0
9715 1 2 0 41.749570846087074 9.960681027851148 -2.210532365978362 0 0 0
9722 1 2 0 43.766817445328634 6.278728268613103 -2.269758903487793 0 0 0
6899 1 1 0 44.565372308313584 7.616484931174269 -1.650259290852832 0 0 0
9723 1 2 0 46.08836405924409 7.478973808940045 -2.2317265940318154 0 0 0
9721 1 2 0 44.16854749219578 9.135015440083546 -2.1947443776205158 0 0 0
6900 1 1 0 43.246605769484646 10.401555614832736 -1.6451218711641697 0 0 0
6902 1 1 0 47.61551663092581 7.441692141583961 -1.646122568245155 0 0 0
9727 1 2 0 48.16758927915352 5.99851383746231 -2.2362208817427143 0 0 0
9744 1 2 0 51.967504773059716 6.364932585468594 -2.23386491055445 0 0 0
9726 1 2 0 48.406668190190004 8.78095412487202 -2.2351895828611794 0 0 0
6903 1 1 0 48.92218574244611 10.246417829630072 -1.6452149712188193 0 0 0
9743 1 2 0 52.55782958611786 9.100013251296636 -2.236835690407887 0 0 0
9729 1 2 0 50.42173421126708 10.552815534004795 -2.231375660892234 0 0 0
6913 1 1 0 51.95403649098504 10.525608479521283 -1.6487057544986277 0 0 0
6912 1 1 0 52.91967281817189 7.5978539416287125 -1.6454011483297728 0 0 0
13528 1 2 0 52.02722557462031 10.53784674886785 -2.92899386648823e-06 0 0 0
9745 1 2 0 54.45345246840361 7.3255026236013325 -2.195645294012536 0 0 0
6915 1 1 0 55.888772973307574 7.924171895058362 -1.6465907879932111 0 0 0
9749 1 2 0 57.02869545880266 6.858070368141546 -2.2263842710162276 0 0 0
9748 1 2 0 56.175469420255105 9.479425961898295 -2.1692420542559905 0 0 0
6916 1 1 0 57.50608868677969 10.35474550746432 -1.6507417025607185 0 0 0
13530 1 2 0 55.89145718090977 7.940647715703866 -2.017239425555391e-06 0 0 0
13531 1 2 0 57.54427340041474 10.397627347591024 -3.2328118215874417e-06 0 0 0
9761 1 2 0 60.02039927236877 7.068586883774856 -2.248437618958813 0 0 0
9751 1 2 0 58.79023339805602 9.526827183210559 -2.2681895425318936 0 0 0
6923 1 1 0 59.990938871212215 8.600117332397641 -1.649119684906656 0 0 0
9762 1 2 0 61.340495328122664 9.294052613092264 -2.2873596566625176 0 0 0
6926 1 1 0 62.83059594754288 9.321248472293824 -1.6380203392819 0 0 0
9764 1 2 0 63.765844763014506 8.02550245557473 -2.069475237833429 0 0 0
9767 1 2 0 63.59710603538774 10.584081406796303 -2.3441494944341295 0 0 0
9766 1 2 0 65.9093930895719 6.668123712024214 -2.2494095475993823 0 0 0
6929 1 1 0 67.15245566551093 5.776943727079274 -1.6463554250318104 0 0 0
9772 1 2 0 68.53452875821077 6.335723917410159 -2.330620740195743 0 0 0
6925 1 1 0 65.36465478000378 8.084320590018827 -1.6380370510123123 0 0 0
9765 1 2 0 66.28931208359931 9.32161317113433 -2.2487558933183434 0 0 0
6927 1 1 0 66.86818537124176 10.749791555614236 -1.6395367494338384 0 0 0
9769 1 2 0 68.33502611792093 11.079310479953104 -2.304586457124691 0 0 0
13540 1 2 0 65.49686759271856 8.15701594790328 -3.888689550376557e-08 0 0 0
13544 1 2 0 67.23928576341511 5.809467674464324 -3.461332055159289e-07 0 0 0
6934 1 1 0 69.88274823845603 6.971333381925281 -1.6406078819971304 0 0 0
9788 1 2 0 73.95078439932782 6.483312913044664 -2.279671814189687 0 0 0
9778 1 2 0 70.13101288005866 8.503360006686341 -2.1896915494333204 0 0 0
6933 1 1 0 71.37987793360035 9.460003260431801 -1.6435318838622754 0 0 0
9779 1 2 0 72.81900186573561 8.957615544125959 -2.268933576582207 0 0 0
6939 1 1 0 74.01621662389809 7.999738753229817 -1.6480026309289535 0 0 0
9776 1 2 0 71.03059791097289 10.983073757755731 -2.1747518590218418 0 0 0
9780 1 2 0 71.1693419229007 6.062018028161337 -2.1497441110378572 0 1 0
13548 1 2 0 71.46136135022913 9.409795259705684 -5.148011455077901e-08 0 0 0
9789 1 2 0 75.44510151009845 8.560969035636074 -2.212149180795612 0 0 0
9798 1 2 0 80.1350299246026 7.4002521354985396 -2.263552295336871 0 0 0
6946 1 1 0 80.90659251080183 6.074427195329814 -1.6495835960382523 0 0 0
6942 1 1 0 76.6045532981786 9.560304255303578 -1.6470950220454137 0 0 0
9794 1 2 0 78.0076214183945 8.969282825598087 -2.258915677318884 0 0 0
6945 1 1 0 79.52965106740426 8.79697029188922 -1.6501623756784316 0 0 0
9799 1 2 0 80.41826105068917 10.078508318825435 -2.22279602699445 0 0 0
9793 1 2 0 76.26847664312673 11.046134486130061 -2.30378771483246 0 0 0
13561 1 2 0 80.89383734835884 6.070083635600255 -2.385159803912523e-07 0 0 0
13557 1 2 0 76.71033167017075 9.588063066099215 -1.0410964466268397e-07 0 0 0
9801 1 2 0 82.45159315011831 6.115117988132595 -2.2390455272427934 0 0 0
6953 1 1 0 83.94219113411965 6.508671288018574 -1.6486330321012836 0 0 0
9809 1 2 0 84.39167244606561 8.006425475230943 -2.2093029378432147 0 0 0
6952 1 1 0 85.67319410954649 8.893290638564652 -1.6478869612426832 0 0 0
9810 1 2 0 85.69038094737915 10.417813273762368 -2.2918167030676795 0 0 0
13567 1 2 0 85.60808818702368 8.961116204796495 -9.154730386932685e-07 0 0 0
9816 1 2 0 89.74254364710512 7.635558739423992 -2.239856014977334 0 0 0
6959 1 1 0 90.01184856429073 6.113704686158905 -1.6436528107392943 0 0 0
9811 1 2 0 87.06002885663698 8.148424768696342 -2.18076956250339 0 0 0
6956 1 1 0 88.55131685088793 8.61722888086446 -1.64527527909216 0 0 0
9817 1 2 0 88.86069324623834 10.155297200897857 -2.171291805887935 0 0 0
9826 1 2 0 91.5619802604582 10.21616565838612 -2.2584852660550405 0 0 0
6961 1 1 0 90.20892870380536 10.956539735060284 -1.6419549860297833 0 0 0
6974 1 1 0 92.85557637560322 6.249906479294312 -1.6445378433509024 0 0 0
9840 1 2 0 92.74453897611512 7.773196458495881 -2.2514966173256123 0 0 0
6970 1 1 0 92.79290895319618 9.301312864400622 -1.6487178432369463 0 0 0
9832 1 2 0 94.21691695381134 9.86976002984584 -2.2390625770834243 0 0 0
9830 1 2 0 96.82681021112272 10.013108725890671 -2.2115564644838006 0 0 0
6964 1 1 0 95.45962242080982 10.75497731569644 -1.6465245619973685 0 0 0
13589 1 2 0 92.99120660253843 6.2743596202851135 -7.994815269886679e-07 0 0 0
13579 1 2 0 95.51594527569219 10.771477498241785 -2.2581485882334723e-07 0 0 0
6971 1 1 0 99.96430351983017 7.342982587887401 -1.6490290284815816 0 0 0
9841 1 2 0 99.1836956287997 6.008848813194778 -2.254023479649956 0 0 0
6680 1 1 0 103.07457853606209 6.976689226873792 -1.645162172310637 0 0 0
9382 1 2 0 101.51248462326106 7.137095601333857 -2.193518393620915 0 0 0
6965 1 1 0 98.39120293516378 10.062616433149019 -1.6470302645133659 0 0 0
9834 1 2 0 99.26274616816644 8.756741336698566 -2.220141747073148 0 0 0
13580 1 2 0 98.47286176736144 10.028051676035872 -3.057562451704184e-07 0 0 0
9300 1 2 0 10.970786094081513 11.196873998058875 -2.140582714979193 0 0 0
9303 1 2 0 13.703149949026054 11.614327249436307 -2.2483606886081984 0 0 0
9506 1 2 0 8.852069212381512 13.756315959295113 -2.238358350747094 0 0 0
9509 1 2 0 13.04054934182176 14.139387221937431 -2.2239216706725746 0 0 0
6757 1 1 0 9.373521280105223 15.201572592823904 -1.6461325431443115 0 0 0
9508 1 2 0 8.39550179974324 16.372619663826598 -2.235037528864846 0 0 0
6758 1 1 0 12.366124933650662 15.516326173110224 -1.6475263330292635 0 0 0
9507 1 2 0 10.851978982955286 15.527453422383688 -2.2724902498841657 0 0 0
9665 1 2 0 17.878037089061646 12.198694946235438 -2.2362257433531796 0 0 0
6759 1 1 0 14.158009274689537 13.090371037437023 -1.6471662677179322 0 0 0
6866 1 1 0 17.14610382737733 13.552896321163788 -1.648393026407901 0 0 0
9511 1 2 0 15.613538552371827 13.53588830685148 -2.2577791307876383 0 0 0
9668 1 2 0 17.895516493505866 14.896188136276013 -2.2445477067639668 0 0 0
6870 1 1 0 18.439467626067557 16.340076776100005 -1.6465268465832863 0 0 0
9670 1 2 0 21.692556360779484 12.422617544099085 -2.245634007418866 0 0 0
9672 1 2 0 22.10396492350174 15.118058512073402 -2.2506757742639945 0 0 0
6869 1 1 0 22.602677267195155 13.667060299662301 -1.6464310582778812 0 0 0
9673 1 2 0 24.12085108318259 13.410551268841193 -2.220415386190364 0 0 0
9674 1 2 0 19.94999588739469 16.621097075923693 -2.2303657365292224 0 0 0
6871 1 1 0 21.485804294519827 16.52611015915243 -1.6476731335609986 0 0 0
13494 1 2 0 29.758292717476447 11.179073638521206 -1.661026024115816e-05 0 0 0
9682 1 2 0 26.579788155361378 12.454539242068718 -2.272881870566526 0 0 0
9688 1 2 0 30.019323132131564 12.650170479927246 -2.221510103032724 0 0 0
6876 1 1 0 25.639774904341394 13.647568228793036 -1.6481406196694461 0 0 0
9685 1 2 0 26.24568246720313 15.029979232041004 -2.285211407233898 0 0 0
6882 1 1 0 26.997771110416675 16.336035366168808 -1.648225856064775 0 0 0
9692 1 2 0 28.514110936650916 16.42053061472027 -2.2635426680910533 0 0 0
6881 1 1 0 30.028303432306146 16.49857266212196 -1.6466209967875005 0 0 0
13491 1 2 0 25.646642873962954 13.699784511129844 -4.142179873782977e-06 0 0 0
9703 1 2 0 34.21232360217551 11.294898007738112 -2.170028098921019 0 0 0
6880 1 1 0 31.14404255321227 13.719144234958106 -1.6493987013079439 0 0 0
9690 1 2 0 30.83436048230825 15.206255543767702 -2.2568003880501615 0 0 0
9691 1 2 0 32.59741251318701 13.313694870951563 -2.2831536882507915 0 0 0
6889 1 1 0 34.03181425136514 12.85428418057183 -1.6459169137428553 0 0 0
9706 1 2 0 35.15993122127343 13.923512509354634 -2.2263405872712174 0 0 0
9712 1 2 0 35.15522125725238 16.68655693246671 -2.2498464589750826 0 0 0
6893 1 1 0 35.848106089262004 15.314376286403409 -1.643635109195439 0 0 0
6892 1 1 0 38.15277810255844 11.357306549912762 -1.6474802831727284 0 0 0
9709 1 2 0 38.54238295944208 12.853423587353138 -2.2511969527606333 0 0 0
6894 1 1 0 38.69185968881202 14.389090439344656 -1.6437471004211022 0 0 0
9713 1 2 0 40.05343170403966 15.1495300908751 -2.2173482260518687 0 0 0
9711 1 2 0 37.41966115114103 15.317988804890446 -2.153026733360346 0 0 0
6983 1 1 0 40.791669708803596 16.527224267995653 -1.648192407671454 0 0 0
9724 1 2 0 43.784744197716236 11.896093604027058 -2.2067147747546687 0 0 0
9731 1 2 0 44.0891345947142 14.732328653142805 -2.193196606658474 0 0 0
6904 1 1 0 44.62437556915558 13.248520985142882 -1.6474002693186605 0 0 0
9730 1 2 0 46.175569162873465 13.257038075233663 -2.2178879069747275 0 0 0
9857 1 2 0 42.33211578945476 16.641318292647135 -2.2228615672895162 0 0 0
6984 1 1 0 43.84139972131933 16.290661452588715 -1.64888307404045 0 0 0
9728 1 2 0 48.069067359299744 11.547022012594383 -2.2052656837773412 0 0 0
9746 1 2 0 52.67137143353769 11.890188521486396 -2.2659308868813612 0 0 0
6905 1 1 0 47.7090975466468 13.064404720883035 -1.6468813367395698 0 0 0
9732 1 2 0 48.695650176087206 14.28603399832826 -2.228806953623215 0 0 0
6988 1 1 0 49.59346160717876 15.56532525656262 -1.6441423160306772 0 0 0
9864 1 2 0 51.148770547762396 15.497898466403191 -2.1898346575926637 0 0 0
6989 1 1 0 52.65405072672394 15.92586356298588 -1.6479793573603814 0 0 0
13604 1 2 0 52.68878122121666 16.02953145334214 -2.6626910601353424e-06 0 0 0
13603 1 2 0 49.52033614521111 15.533207682341212 -1.5330047789378606e-07 0 0 0
9750 1 2 0 57.59600335614798 11.912586447345012 -2.2291297473036815 0 0 0
9753 1 2 0 53.52867065562812 14.629375732482474 -2.2147516360738164 0 0 0
6917 1 1 0 53.638441839169595 13.078568263485083 -1.6254617352707432 0 0 0
9752 1 2 0 55.15345349292187 12.60199132884065 -2.042726830310383 0 0 0
6918 1 1 0 56.6501212083627 13.152143591402785 -1.6322814557754042 0 0 0
9754 1 2 0 56.870743756346336 14.685820095166928 -2.2540293545151826 0 0 0
6992 1 1 0 57.90532950995481 15.84547180853574 -1.6416609632844976 0 0 0
13533 1 2 0 56.86624654490939 13.248558249183095 -3.3420969337715233e-06 0 0 0
13532 1 2 0 53.36870483944231 13.126255031163021 -2.3634474118216692e-06 0 0 0
13607 1 2 0 57.6943101184073 15.958805452854017 -9.37651947661948e-07 0 0 0
9770 1 2 0 63.31707859690703 13.096119945722002 -2.1647055883630757 0 0 0
6936 1 1 0 63.385987392257924 14.651415044837739 -1.6519401691663302 0 0 0
9870 1 2 0 59.365231762645664 15.189567058954779 -2.1023761812667208 0 0 0
6993 1 1 0 60.73210868591335 15.960150981068296 -1.6447782345832858 0 0 0
9784 1 2 0 62.02475489391438 15.238270733301976 -2.3420660649567484 0 0 0
13551 1 2 0 63.39755038589137 14.836181723114736 -1.8134687696353305e-07 0 0 0
13543 1 2 0 64.2081007219165 11.79586963722951 -3.1180175592143424e-07 0 0 0
6928 1 1 0 64.26943873938124 11.891706234571016 -1.6341086412389714 0 0 0
9768 1 2 0 65.86064389517162 12.002406056861792 -2.089409738794031 0 0 0
6932 1 1 0 69.67346695143122 11.78776804579957 -1.6488156482790541 0 0 0
9783 1 2 0 64.79422338737568 15.190423901656597 -2.3443730848395514 0 0 0
6937 1 1 0 66.09264027838414 15.733781324962115 -1.508017997352111 0 0 0
9785 1 2 0 67.54947295184758 15.52560237982429 -2.2524738633963235 0 0 0
6938 1 1 0 68.67999842636405 16.607240071713537 -1.6564308131409888 0 0 0
9777 1 2 0 69.74316995729578 13.331724577066776 -2.2200695845292815 0 0 0
13547 1 2 0 69.61487697886977 11.772244194406543 -6.603110878311986e-07 0 0 0
13553 1 2 0 68.56592275856855 16.67593210038504 -1.4834103005777955e-07 0 0 0
6935 1 1 0 70.6941181977006 14.553207102291463 -1.6433976733222262 0 0 0
9782 1 2 0 72.17708414404582 14.414314155707075 -2.3109590014943895 0 0 0
6944 1 1 0 73.6751706910904 14.368415097486205 -1.6586831285837773 0 0 0
9795 1 2 0 74.28315259204957 12.94613284995761 -2.2652572665360533 0 0 0
9781 1 2 0 70.13250634042686 16.01580033395232 -2.153737081253032 0 0 0
9797 1 2 0 74.50322729474001 15.661381851168446 -2.248561500140973 0 0 0
13558 1 2 0 75.18983751025746 11.869236332412239 -2.595518499577668e-07 0 0 0
6943 1 1 0 75.62357051668354 12.340488671405598 -1.5267774559453828 0 0 0
6949 1 1 0 80.29474993059303 11.61986095069324 -1.6437979679392958 0 0 0
9796 1 2 0 76.67256954685732 13.619544652033927 -1.5021943610678652 0 0 0
6950 1 1 0 78.31482341910642 13.726335645251808 -1.521404609997755 0 0 0
9805 1 2 0 78.89335283244753 12.331070642802183 -2.1902283421899846 0 0 0
9807 1 2 0 78.66970054980979 15.129371820679447 -2.3076516609348214 0 0 0
6997 1 1 0 78.2206636149571 16.590820122602693 -1.6547738169910087 0 0 0
13612 1 2 0 78.17445971092091 16.554325424349262 -1.556515058250815e-07 0 0 0
13565 1 2 0 78.95509772552833 13.855268285312864 -3.4988984412727187e-07 0 0 0
9806 1 2 0 81.4469101478408 12.573209032827766 -2.3148768255729486 0 0 0
9813 1 2 0 84.01632451108351 12.431013857833698 -2.2247851453980947 0 0 0
6954 1 1 0 85.46521277596408 11.91479150924865 -1.64259739478838 0 0 0
6955 1 1 0 82.75226360188047 13.298522555443082 -1.643264071733618 0 0 0
9815 1 2 0 82.76353922195125 14.872604791300542 -2.1483994748683246 0 0 0
7004 1 1 0 83.86541623225581 16.006266317058575 -1.642651134286922 0 0 0
9828 1 2 0 85.35734538259457 15.55778523249906 -2.212498985413376 0 0 0
9814 1 2 0 86.57860225048582 13.030729920176189 -2.1526679034051686 0 0 0
6962 1 1 0 86.60397457753129 14.617149477489113 -1.6467175685700841 0 0 0
9823 1 2 0 89.97141948838576 12.519822012088053 -2.145068412895745 0 0 0
9824 1 2 0 90.61474005151769 15.195819973206829 -2.2037700022165954 0 0 0
6960 1 1 0 91.0500894476791 13.682313514902052 -1.6415682615048306 0 0 0
9827 1 2 0 87.98363384215322 15.227377841765641 -2.2852781990418114 0 0 0
6963 1 1 0 89.26779033888434 16.041302238131223 -1.6521683374568192 0 0 0
13578 1 2 0 89.28483658695886 16.060629488441343 -2.112277569402257e-07 0 0 0
13575 1 2 0 91.12327368833552 13.803590282475884 -5.9222785169724394e-08 0 0 0
9831 1 2 0 95.19346075069053 12.312740891308554 -2.199575213868605 0 0 0
9825 1 2 0 92.47546526965522 13.014500460462775 -2.182537404328695 0 0 0
6966 1 1 0 94.0099432914277 13.33951696773637 -1.6452414926301269 0 0 0
9835 1 2 0 94.20938605191559 14.837880027810986 -2.272273113871922 0 0 0
6968 1 1 0 94.78733834667544 16.237533781865455 -1.6459043280110888 0 0 0
9837 1 2 0 96.35094802915624 16.204315553355965 -2.1979777567175764 0 0 0
6969 1 1 0 97.84540761242538 15.72391410233348 -1.644445517769674 0 0 0
13584 1 2 0 97.81591663888824 15.598404231130074 -8.332034417070886e-08 0 0 0
9833 1 2 0 98.90985409428988 11.531595104152194 -2.218073571011301 0 0 0
9380 1 2 0 103.16182375097179 11.381499514885652 -2.176018520213374 0 0 0
9836 1 2 0 98.4951496155338 14.287455178998114 -2.221804709626172 0 0 0
6967 1 1 0 99.4165071992571 13.00334370138029 -1.6469662110783598 0 0 0
9516 1 2 0 100.97323451309863 13.069955893609658 -2.2011865339672507 0 0 0
6762 1 1 0 102.52251008316989 12.855741075307405 -1.64726872526773 0 0 0
9514 1 2 0 103.22166065435188 14.286477262595037 -2.190379131999219 0 0 0
13377 1 2 0 102.58451313724035 12.8277455849686 -3.9685836850277714e-07 0 0 0
13376 1 2 0 103.39860304416034 15.832608188107566 1.1707683612143549e-08 0 0 0
9510 1 2 0 13.212615329407182 16.774126528845137 -2.2781160896540524 0 0 0
9605 1 2 0 12.56486083871347 19.310918613514215 -2.079509997373566 0 0 0
6825 1 1 0 13.689004839063923 18.208208884204915 -1.6345023785850896 0 0 0
6823 1 1 0 9.187845271571808 20.444516961326148 -1.645572749114714 0 0 0
9604 1 2 0 10.672094561295868 20.9932198015989 -2.2093948500671945 0 0 0
6824 1 1 0 12.251481913276663 20.871565103149052 -1.6384333788514294 0 0 0
9606 1 2 0 13.537746362423274 21.77746972362463 -2.261646821082497 0 0 0
9571 1 2 0 8.543053832265757 19.011083521439293 -2.229045932205708 1 0 0
13438 1 2 0 9.282374823552967 20.343857001306702 -9.498546649173046e-05 0 0 0
13439 1 2 0 12.213945478575065 21.117423494987932 -0.00013197193071770051 0 0 0
9607 1 2 0 15.137105373446865 18.603581274670663 -2.292893089502742 0 0 0
6977 1 1 0 16.631314663252862 18.828388186236207 -1.6509340253694629 0 0 0
9675 1 2 0 17.540772399151173 17.58505165270102 -2.2365818582778463 0 0 0
9849 1 2 0 17.111810504314132 20.295533788871133 -2.2460123888350947 0 0 0
7046 1 1 0 18.143188676906348 21.429957180188183 -1.638842901433868 0 0 0
13661 1 2 0 18.016951342170998 21.45801583368344 -0.00015552489153206568 0 0 0
13592 1 2 0 16.65423923088784 18.821472910121646 -1.903037925504005e-05 0 0 0
9676 1 2 0 22.330485886304455 17.823607416150736 -2.230001506636647 0 0 0
7009 1 1 0 22.91885220709952 19.262370544524522 -1.6488973271647092 0 0 0
9895 1 2 0 24.437039842876384 19.537721935363923 -2.223551004021917 0 0 0
9953 1 2 0 19.646700393289933 21.029667870063754 -2.168612589030833 0 0 0
7047 1 1 0 21.077076172581627 21.64720550243957 -1.644853216411824 0 0 0
9896 1 2 0 22.15133976305777 20.575632653244817 -2.2732754095072925 0 0 0
13624 1 2 0 22.862929153371184 19.220482756879793 -2.0375361083629414e-05 0 0 0
13662 1 2 0 21.15804250910756 21.660846475325265 -8.87055444939456e-05 0 0 0
9694 1 2 0 26.175609547013245 17.615719980692074 -2.252997040869292 0 0 0
7010 1 1 0 25.908632698824675 19.111059262502412 -1.6440868080238755 0 0 0
9897 1 2 0 27.075047822440997 20.12770113838079 -2.2092464414171085 0 0 0
7051 1 1 0 27.558432489469727 21.60439368339823 -1.6471682388118165 0 0 0
9959 1 2 0 29.071834994232947 21.876443939817115 -2.240351291963529 0 0 0
7050 1 1 0 30.610082305868957 21.725476456098715 -1.6485315674331669 0 0 0
9693 1 2 0 30.74568815640621 17.84288992401144 -2.2465490647988045 0 0 0
6979 1 1 0 31.81795654860242 18.936384838093765 -1.6476451692718435 0 0 0
9850 1 2 0 33.30916307586694 18.584391604688005 -2.2433850688495327 0 0 0
6978 1 1 0 34.793383252416085 18.18853315207563 -1.6494283968102064 0 0 0
9851 1 2 0 35.84047816198273 19.319815482256857 -2.237225792308373 0 0 0
9852 1 2 0 31.337135936571116 20.383386149414875 -2.257779521415742 0 0 0
9901 1 2 0 38.4135074456473 19.976190359515382 -2.2482224696394493 0 0 0
7014 1 1 0 39.843489856810514 19.41212920180064 -1.6545589389193227 0 0 0
9858 1 2 0 40.01477207281071 17.872203290585695 -2.219492707618524 0 0 0
9902 1 2 0 36.544667528380835 21.91055631482369 -2.2132943962045872 0 0 0
7013 1 1 0 36.936702769142336 20.403545566292333 -1.6465300999853085 0 0 0
9903 1 2 0 41.084079184999254 20.371184272922005 -2.2405989498047116 0 0 0
7055 1 1 0 41.46334486737365 21.813462571547554 -1.5177464576192035 0 0 0
9859 1 2 0 44.83628616525791 17.518053347003665 -2.237852406209369 0 0 0
7017 1 1 0 45.72414877215296 18.810334959562972 -1.6407949792893175 0 0 0
9907 1 2 0 47.27633909824754 18.80008199766002 -2.216981085237928 0 0 0
9908 1 2 0 45.268987902820385 20.354749361294896 -2.1508493480219455 0 0 0
7056 1 1 0 46.01154949161394 21.737206033776452 -1.550395556565291 0 0 0
9865 1 2 0 49.09621729105296 17.025536573212083 -2.2320258145344716 0 0 0
7018 1 1 0 48.804115482884946 18.54247513388575 -1.648151398136447 0 0 0
9909 1 2 0 49.87788027092777 19.68664982519256 -2.239964915267952 0 0 0
7062 1 1 0 50.656638630496694 20.982379938928315 -1.5126672220953952 0 0 0
9978 1 2 0 52.00256872110389 21.62237488739963 -2.2534816641064483 0 0 0
13678 1 2 0 53.63352440151026 21.697698174020662 -3.413390005347676e-06 0 0 0
9866 1 2 0 53.224846469297766 17.38463743653641 -2.2489914417162113 0 0 0
7019 1 1 0 54.12900070231993 18.638417279604663 -1.5912990248863308 0 0 0
9910 1 2 0 55.70705567221801 18.286511060373332 -1.8637460893666613 0 0 0
9871 1 2 0 57.966616286269925 17.398577861027405 -2.2564910156798694 0 0 0
7020 1 1 0 57.26357358570339 18.77505193388348 -1.6037199046901462 0 0 0
7063 1 1 0 53.5586612154194 21.63051584645189 -1.6543381091595313 0 0 0
9911 1 2 0 54.05503582278758 20.15834877409513 -2.2542867868908743 0 0 0
9912 1 2 0 57.68623384435625 20.29228226535148 -2.2144519018757363 0 0 0
7064 1 1 0 58.56464476591155 21.626834787343046 -1.6465945235791386 0 0 0
13634 1 2 0 53.69988675800418 18.731039119982675 -2.9134439793577498e-06 0 0 0
9872 1 2 0 60.71967016478116 17.530792681296344 -2.2115340650040256 0 0 0
7023 1 1 0 61.96256453935596 18.425131975778083 -1.6151166738799811 0 0 0
9916 1 2 0 63.378129479132475 17.655346719881155 -2.059992522782417 0 0 0
9981 1 2 0 60.07828941237988 21.431963874047828 -2.2593286288394148 0 0 0
9917 1 2 0 62.12839311986539 19.90710574939922 -2.280049077472196 0 0 0
7065 1 1 0 61.58775838505294 21.32967054431576 -1.6459872084990377 0 0 0
13680 1 2 0 61.54431569432884 21.421045563542542 -7.50234192960676e-07 0 0 0
13638 1 2 0 61.68390590644205 18.593918884421424 -2.0413152841968833e-06 0 0 0
9786 1 2 0 66.00735255776084 17.397651038549284 -1.4516593398428779 0 0 0
7024 1 1 0 64.73717817719768 18.41888892826773 -1.5055155427143314 0 0 0
9918 1 2 0 65.15864375841558 19.7513059051074 -2.358765430817977 0 0 0
9787 1 2 0 68.46980804074558 18.093147587046584 -2.321167384924957 0 0 0
7028 1 1 0 68.69135950949027 19.579674630637548 -1.649377462452067 0 0 0
7068 1 1 0 66.0913460209024 20.93667094628924 -1.654872262024683 0 0 0
9925 1 2 0 67.62505840177407 20.714207210600975 -2.21524547588067 0 0 0
6996 1 1 0 75.208554797245 17.0207113622429 -1.6514535209987378 0 0 0
9877 1 2 0 74.37656335503495 18.301706163834798 -2.2936318588805467 0 0 0
7029 1 1 0 73.959668669994 19.72031774670619 -1.575598031471415 0 0 0
9924 1 2 0 70.16018361825677 20.0170621719014 -2.2050202660567133 0 0 0
7030 1 1 0 71.30213289817083 21.039282639362124 -1.647547684062622 0 0 0
9926 1 2 0 72.6783980420513 20.432496011017253 -2.3213374840154377 0 0 0
9927 1 2 0 75.22650641868546 20.7539161868362 -1.7335967608004523 0 0 0
13644 1 2 0 73.57294079760088 19.412882279712182 -3.84579831845492e-08 0 0 0
13611 1 2 0 75.19653095674495 17.041925789777082 -2.611822938649297e-07 0 0 0
9876 1 2 0 76.75445588781845 17.091334205909405 -2.2254119969316006 0 0 0
9878 1 2 0 79.37345593371266 17.611697466285364 -2.2160676296226205 0 0 0
7033 1 1 0 79.83941500785791 19.081562100799996 -1.648263757329782 0 0 0
7075 1 1 0 78.37114559616009 21.656459926413543 -1.6362399493362096 0 0 0
9933 1 2 0 78.73716705065067 20.16607018439892 -2.251595904026844 0 0 0
9889 1 2 0 83.38947140039923 17.45366945568812 -2.2694242097009067 0 0 0
9932 1 2 0 81.37083476544072 19.306194283586557 -2.223895878183352 0 0 0
7034 1 1 0 82.86957353661387 18.90259568556841 -1.6506865269721438 0 0 0
9934 1 2 0 83.87760677541705 20.052740110855467 -2.251255730766855 0 0 0
7116 1 1 0 84.74374551168695 21.31167117341282 -1.6448903388909972 0 0 0
10003 1 2 0 86.28782577974913 21.015877715428076 -2.1578019677543003 0 0 0
13649 1 2 0 82.88613545532718 18.874888982583748 -2.639136762314615e-07 0 0 0
9829 1 2 0 89.06807931356715 17.60010557579839 -2.18608235776417 0 0 0
7006 1 1 0 89.73798542340234 19.028938200468698 -1.646289449464436 0 0 0
9890 1 2 0 91.29333311304414 18.84441375699996 -2.2076803752330623 0 0 0
7078 1 1 0 87.7871470428528 21.510592338268182 -1.6472195610807696 0 0 0
9892 1 2 0 88.90730650391193 20.379052793715093 -2.2127593050211907 0 0 0
13621 1 2 0 89.7338208014691 19.11982098803264 -3.902302978007943e-07 0 0 0
9838 1 2 0 93.75809636303154 17.40213677803286 -2.2345166201421645 0 0 0
7005 1 1 0 92.84295413974904 18.665067895737526 -1.6459558274425474 0 0 0
9891 1 2 0 93.56523655692679 19.9972356091852 -2.261305622474361 0 0 0
7041 1 1 0 94.17594944585188 21.382048197569205 -1.6496690186258507 0 0 0
9945 1 2 0 95.72018215284012 21.37611733525264 -2.229040351456111 0 0 0
7042 1 1 0 97.2419239431708 21.113032064676133 -1.6467603248863347 0 0 0
13656 1 2 0 94.19084132009566 21.402953657235994 -4.043884588405213e-07 0 0 0
13620 1 2 0 92.81982267704045 18.567827796466933 -5.674478131937152e-07 0 0 0
9839 1 2 0 98.75716053731252 16.991479054169368 -2.1944452056090693 0 0 0
9515 1 2 0 102.54381592055363 17.116175007881772 -2.218051101647793 0 0 0
9894 1 2 0 97.91150970330152 19.70710630659772 -2.245306939615431 0 0 0
7008 1 1 0 98.94376402266757 18.542845491195468 -1.641606461464828 0 0 0
9576 1 2 0 100.45851867490259 18.900018178962693 -2.169417472106293 0 0 0
6803 1 1 0 101.99355290499778 18.590907704510936 -1.6449504451026662 0 0 0
9574 1 2 0 102.74609915001345 19.97723521497784 -2.217715642336842 0 0 0
6802 1 1 0 102.67384558029485 21.53765854006891 -1.6239259733258606 0 0 0
13418 1 2 0 102.09706633883174 18.517879523978046 -3.3612411696224676e-07 0 0 0
13417 1 2 0 102.40928343954761 21.415338388248898 -3.3645832779679267e-07 0 0 0
9278 1 2 0 8.386261132668599 24.137753998984834 -2.2381262867001803 0 0 0
9646 1 2 0 13.00987140835193 24.05475316759227 -1.347026521357344 0 0 0
6625 1 1 0 9.437671805460417 25.287262270043474 -1.6486527339153831 0 0 0
9280 1 2 0 8.899261869817906 26.728549311254213 -2.2153933800800836 0 0 0
6852 1 1 0 12.426821385543288 25.57313219763734 -1.4999798874362251 0 0 0
9281 1 2 0 10.984499796535244 25.29511159712955 -2.2786600411023787 0 0 0
9647 1 2 0 13.61871902325602 26.454740644288016 -2.281745818657616 0 0 0
13467 1 2 0 12.096671938309644 26.21982899426364 -0.00041404838314197337 0 0 0
13240 1 2 0 9.45369256687956 25.139402257509396 -0.0002290926381086819 0 0 0