LAMMPS data file via write_data, version 2 Aug 2023, timestep = 187, units = metal

15552 atoms
2 atom types

7.157558933385561 197.13429643030858 xlo xhi
6.367819148058875 170.73812688432375 ylo yhi
-100 100 zlo zhi

Masses

1 28.085
2 15.999

Atoms # full

6635 1 1 0 9.213458863619877 8.589210570464218 -1.6466539644669538 0 0 0
9341 1 2 0 7.765823687730908 8.022812677841866 -2.2430516164585215 0 0 0
6647 1 1 0 11.460710480060975 6.494555981267598 -1.6508528036671293 0 0 0
9345 1 2 0 10.53051579188359 7.7594942970987395 -2.213536383406801 0 0 0
9343 1 2 0 9.358928802333065 10.16746344422946 -2.154146929544908 0 0 0
6634 1 1 0 8.28684045811408 11.32931472159015 -1.6453688313177053 0 0 0
13127 1 2 0 11.48772493928388 6.448142876227542 -3.0831258392461295e-07 0 0 0
9364 1 2 0 13.055851484825416 6.68383296665286 -2.171522291736734 0 0 0
6646 1 1 0 14.385355358676337 7.585044457562637 -1.6481882360255034 0 0 0
9365 1 2 0 15.929432710616512 7.190226288429205 -2.1849641066451673 0 0 0
6865 1 1 0 17.455120949868178 6.720967515518889 -1.6476957418793006 0 1 0
6645 1 1 0 14.579173776940596 10.606967568154591 -1.6482984717120983 0 0 0
9362 1 2 0 14.106488869630379 9.1272156933402 -2.20285255063771 0 0 0
9352 1 2 0 13.539887990091245 11.740223880272206 -2.2666890800508255 0 0 0
9363 1 2 0 16.12943419205153 10.909514768033915 -2.1668757204578823 0 0 0
13125 1 2 0 14.533996898006727 10.614056344385649 -9.111588093084652e-08 0 0 0
13345 1 2 0 17.470081179854894 6.82323927396311 -1.1813183818796428e-06 0 1 0
6861 1 1 0 17.172616528492487 12.086116301306888 -1.64769346647229 0 0 0
13341 1 2 0 17.222850798849496 12.077841234467774 -3.963784016385997e-08 0 0 0
9689 1 2 0 18.81436924723359 7.586717178473015 -2.192195108213618 0 0 0
6864 1 1 0 20.23154737158887 8.336900108689056 -1.6464830811082554 0 0 0
9690 1 2 0 21.69776909425617 7.670812165956218 -2.145017056771691 0 0 0
6870 1 1 0 23.277962983182395 7.970982269706797 -1.650911301267873 0 0 0
9687 1 2 0 20.38754569464014 9.908800930834852 -2.1799574830325112 0 0 0
9696 1 2 0 23.884568492765187 9.424583747404059 -2.2100812145239837 0 0 0
6863 1 1 0 20.148350750890817 11.463698160027471 -1.6488159664184598 0 0 0
13343 1 2 0 20.174652596969484 11.474412207286775 -1.3364349503443396e-06 0 0 0
9685 1 2 0 18.675876229968686 11.86969690838292 -2.2676600468078916 0 0 0
9695 1 2 0 23.798311911277317 12.127240453518844 -2.1996001088650767 0 0 0
9699 1 2 0 24.324528286258275 6.808574829473143 -2.225832460014767 0 0 0
9711 1 2 0 28.311101897228884 7.16458222569208 -2.2241123701509737 0 0 0
6878 1 1 0 29.07090270055262 8.508978688641758 -1.6443714689262738 0 0 0
6868 1 1 0 24.614177046963142 10.808424498146715 -1.6470566253613181 0 0 0
9697 1 2 0 26.1426755514557 11.055874381280583 -2.229099335461878 0 0 0
9703 1 2 0 28.48832485348243 9.941488706618888 -2.225713314758885 0 0 0
6873 1 1 0 27.67701756833402 11.271305739040237 -1.6498881740158469 0 0 0
13353 1 2 0 27.685160574574788 11.288227431986636 -2.0196876808970318e-07 0 0 0
9712 1 2 0 30.636347571057197 8.379973500943416 -2.1649446784299187 0 0 0
6889 1 1 0 34.74997250685848 8.942371004206894 -1.6501486917465578 0 0 0
6883 1 1 0 31.817681001791517 9.396015906986232 -1.6423271288432333 0 0 0
9717 1 2 0 31.516051110233192 10.918431982980996 -2.193519771682109 0 0 0
9719 1 2 0 33.22993834114625 8.857859110144434 -2.266503724755042 0 0 0
13363 1 2 0 31.877719411714168 9.393260785490472 -2.485009215580551e-07 0 0 0
13369 1 2 0 34.74896241639724 8.937936777709716 -6.832315812182386e-08 0 0 0
9729 1 2 0 35.51392883266377 7.650036201642219 -2.297592619870337 0 0 0
9727 1 2 0 35.49944372706873 10.291253269160379 -2.205412691614949 0 0 0
6888 1 1 0 36.74008160190932 11.222028107567919 -1.6447673932096802 0 0 0
9728 1 2 0 38.152303805064086 10.569687697879868 -2.231995906854815 0 0 0
6890 1 1 0 39.706947940743625 10.396639698956845 -1.645900109936759 0 0 0
9730 1 2 0 40.48725924557863 11.740739571500194 -2.1860235574108575 0 0 0
9731 1 2 0 40.58698527663853 9.106290632873463 -2.2284989431168127 0 0 0
13370 1 2 0 39.665945189570074 10.288157242632668 -5.713292940348306e-07 0 0 0
6893 1 1 0 41.65468437173749 7.962330542001308 -1.647003818927615 0 0 0
9735 1 2 0 41.12013147954396 6.504992089856465 -2.2038754013257 0 0 0
9736 1 2 0 43.214975094621224 8.087246269006231 -2.2007860405232424 0 0 0
6898 1 1 0 44.78730752860506 8.119360990612469 -1.6495985974431437 0 0 0
9743 1 2 0 45.68026979155944 6.7641822990469755 -2.1642817135037813 0 0 0
9742 1 2 0 45.32263987564296 9.620196848229726 -2.181880952338088 0 0 0
6900 1 1 0 45.47713365868142 11.204632771767832 -1.6481274474132765 0 0 0
13378 1 2 0 44.81659759493956 8.080014376001298 -2.64237275478942e-07 0 0 0
13380 1 2 0 45.38779716013861 11.176786543649694 -1.6132031590424195e-07 0 0 0
9753 1 2 0 51.22467791914199 8.868957508914047 -2.202156381779298 0 0 0
9752 1 2 0 49.43980059455387 11.117435991280328 -2.1649234010766243 0 0 0
6904 1 1 0 50.869194820573824 10.421050875424577 -1.6501933425219275 0 0 0
9746 1 2 0 46.92818597260067 11.738118865934936 -2.2140690359238917 0 0 0
9749 1 2 0 52.014788524112696 11.530768952767417 -2.1750510042299487 0 0 0
6916 1 1 0 52.079864691747694 7.513019464627882 -1.6496885411860613 0 0 0
9769 1 2 0 53.63552522155105 7.618376226839101 -2.2137487089778216 0 0 0
6914 1 1 0 55.18209961208001 7.5407147755664115 -1.6465583146928087 0 0 0
6909 1 1 0 56.507177418796275 10.262657562362941 -1.6607693255554592 0 0 0
9761 1 2 0 55.965628297902086 8.850719593542813 -2.2807931700487596 0 0 0
9759 1 2 0 55.51239787064118 11.50874480552799 -2.1972603156284576 0 0 0
13396 1 2 0 52.00692036038802 7.532029753067283 -1.148130687081132e-06 0 0 0
13394 1 2 0 55.15622929502619 7.573888385799555 -9.246716309579706e-07 0 0 0
6918 1 1 0 60.176129625525725 6.571966862832476 -1.5832813899095197 0 0 0
9773 1 2 0 61.17731854910723 7.725241096847479 -2.2746485395095 0 0 0
9760 1 2 0 58.00097454691637 10.599515955061644 -2.282134198528991 0 0 0
9765 1 2 0 60.209892870028554 9.882517410031467 -1.3593697735017984 0 0 0
6917 1 1 0 61.63983311815271 9.132452878167136 -1.4957531432647835 0 0 0
9774 1 2 0 62.68740854712135 10.169607821493123 -2.282270302099202 0 0 0
6911 1 1 0 59.31917876598565 11.23161277475439 -1.5085653584327137 0 0 0
13391 1 2 0 58.927878977160695 11.849842946713656 -4.177565730582134e-07 0 0 0
9786 1 2 0 65.19643656034435 8.055917207235524 -2.2274807854582397 0 0 0
9782 1 2 0 65.20744114637763 10.703833079250616 -1.6682633156055644 0 0 0
6925 1 1 0 66.06755207388488 9.312548862571552 -1.5583623103815356 0 0 0
9787 1 2 0 67.49101246393508 9.787139630348372 -2.2849070290913 0 0 0
6922 1 1 0 63.68827898756451 11.295500516046564 -1.556929592336683 0 0 0
13402 1 2 0 63.1414060972016 11.4686946350909 -9.189158425879703e-07 0 0 0
6926 1 1 0 64.94569112569467 6.505864105633066 -1.646097234120772 0 1 0
6930 1 1 0 68.53336986869749 10.922081609268966 -1.6429279910331784 0 0 0
13406 1 2 0 64.85507906167648 6.542433631755261 -2.0643579177072927e-07 0 1 0
9799 1 2 0 70.12001617455294 7.825580971715382 -2.259675203300551 0 0 0
9795 1 2 0 70.06438156883418 10.477725994214262 -2.0759565960498523 0 0 0
6933 1 1 0 70.90968939984369 9.140404716083934 -1.6373443695659424 0 0 0
9800 1 2 0 72.42234598911747 9.28773132508311 -2.2599962933415636 0 0 0
6936 1 1 0 73.87768477109354 9.775531747950193 -1.651980194086342 0 0 0
9804 1 2 0 74.22612178302266 11.279176486024417 -2.2513661579192865 0 0 0
6942 1 1 0 75.7072844432917 7.336511467167215 -1.6474993018483701 0 0 0
9815 1 2 0 77.24616566981615 7.284875904699417 -2.2442506406441494 0 0 0
6947 1 1 0 78.6826301143459 7.825187816707793 -1.6458936282659602 0 0 0
9805 1 2 0 74.99270781988996 8.705655290432649 -2.226684759003178 0 0 0
9820 1 2 0 78.90369859956486 9.361564546646608 -2.2010133545435155 0 0 0
13422 1 2 0 75.70404687109537 7.359680756377381 -2.936153421730411e-08 0 0 0
13427 1 2 0 78.63075168966947 7.837796823007166 -1.6983094883750595e-07 0 0 0
9819 1 2 0 79.56472552413044 11.926068547440725 -2.238162597779868 0 0 0
9824 1 2 0 79.9338664981614 6.832889382592603 -2.1292833742998227 0 1 0
9827 1 2 0 83.42154291319645 8.022093301457867 -2.2578493555063486 0 0 0
6954 1 1 0 84.29992408987947 6.758293460875352 -1.6463853863482094 0 0 0
6945 1 1 0 80.0140854077855 10.451734777392332 -1.6481740938806742 0 0 0
9821 1 2 0 81.46983883491792 9.93616641267579 -2.237576438897902 0 0 0
6949 1 1 0 82.93979969035269 9.483206413215644 -1.6456243319814778 0 0 0
9826 1 2 0 84.01217840308934 10.621285432725115 -2.169761008464675 0 0 0
13434 1 2 0 84.23410191144474 6.789059499253631 8.899927400530898e-08 0 0 0
13429 1 2 0 82.88911290254504 9.405262774850204 -3.570366974434381e-08 0 0 0
13425 1 2 0 80.07072681100472 10.512911516459445 -9.599412867337107e-07 0 0 0
6950 1 1 0 84.34531288988858 12.146272713487084 -1.6470545216087638 0 0 0
13430 1 2 0 84.33901092836744 12.201111056266946 -1.624478868852215e-07 0 0 0
9834 1 2 0 85.86308269409628 6.855094941504976 -2.1781559693081287 0 0 0
9840 1 2 0 88.50913327589257 6.8993528873858425 -2.258728311846672 0 0 0
6957 1 1 0 89.84384436340336 7.632910144309255 -1.651232869573299 0 0 0
6955 1 1 0 89.55997606662652 10.670365130365553 -1.6407073259968192 0 0 0
9837 1 2 0 89.78117271796549 9.162155874656575 -2.2566676118717304 0 0 0
9836 1 2 0 88.20275345875842 11.370550696953044 -2.2498290250054422 0 0 0
9838 1 2 0 90.83974908262431 11.592198213815289 -2.130972947318486 0 0 0
13437 1 2 0 89.86353639206379 7.62833716279088 -5.095666748930104e-07 0 0 0
6966 1 1 0 92.62684217766493 6.3696699634450775 -1.6450556569176071 0 0 0
9841 1 2 0 91.16288664988986 6.83555127188027 -2.244122184641567 0 0 0
9851 1 2 0 93.8295104305715 7.376832512421381 -2.1752324909962444 0 0 0
9845 1 2 0 92.91186930924023 9.867587965521533 -2.2429372399233447 0 0 0
6965 1 1 0 94.11769158179938 8.910705700330423 -1.6470767075745152 0 0 0
9852 1 2 0 95.53354585324328 9.462304407244401 -2.2617488165899684 0 0 0
6961 1 1 0 92.38729837156296 11.305357698893436 -1.6403834072299721 0 0 0
13441 1 2 0 92.44138765929296 11.238688103092743 -2.2944123767945728e-07 0 0 0
6970 1 1 0 98.5625040406835 7.058412028138361 -1.6465262484283607 0 0 0
9855 1 2 0 98.01441081095814 8.470625731655012 -2.2508202567798046 0 0 0
6538 1 1 0 101.4853020477362 7.698776875658044 -1.6466020772031453 0 0 0
9179 1 2 0 100.11288655900503 6.952654283516572 -2.197701364201426 0 0 0
6967 1 1 0 97.04933533634032 9.635311447513454 -1.6491847639124062 0 0 0
9854 1 2 0 97.75055898309697 10.977994701396286 -2.2662612858192963 0 0 0
9166 1 2 0 101.69109554318418 9.23905721390175 -2.2285672114257196 0 0 0
13450 1 2 0 98.5382574453487 6.994178904421737 -8.723315547939593e-07 0 0 0
13018 1 2 0 101.46418079306565 7.771199716134209 -1.0009030604788617e-06 0 0 0
13447 1 2 0 97.01304988342076 9.638410916684581 -1.3046301274130064e-06 0 0 0
9165 1 2 0 101.4917240601457 11.932886114489483 -2.2273647485743138 0 0 0
9344 1 2 0 8.575378960852111 12.856873876499304 -2.2335815109595676 0 0 0
9349 1 2 0 11.106890174158261 12.835748222307537 -2.0524444670227537 0 0 0
6639 1 1 0 12.684933037078725 12.99951128120573 -1.6327123587008447 0 0 0
9350 1 2 0 9.93106533739366 15.341413899294842 -2.258119254521792 0 0 0
6638 1 1 0 9.81734589313595 13.79049037027732 -1.6423054895428675 0 0 0
6640 1 1 0 9.161928340077703 16.645205799180136 -1.5377049441801192 0 0 0
9354 1 2 0 7.587733603457233 16.140752249157394 -1.572260404311413 0 0 0
13120 1 2 0 9.758318689055717 16.8190110145223 -6.700487399784755e-07 0 0 0
13118 1 2 0 9.696761252218876 13.946943369179486 -2.3152032592035451e-07 0 0 0
9351 1 2 0 13.095931655352107 14.457435116690888 -2.2924434622885435 0 0 0
6643 1 1 0 13.802899162583392 15.792142501182523 -1.6584195332257836 0 0 0
9360 1 2 0 15.346769695990298 15.8108466565752 -2.2163447247882866 0 0 0
6862 1 1 0 16.682587287181455 15.060732658261879 -1.646045646795031 0 0 0
9684 1 2 0 16.646863432500535 13.528340454486834 -2.2405948455903366 0 0 0
9359 1 2 0 13.118722671301104 17.198993867466026 -2.2311142548286553 0 0 0
9686 1 2 0 17.97210852674445 15.901981224475419 -2.225278837866737 0 0 0
13123 1 2 0 13.753935486161078 15.753007327901102 -1.7861566339744606e-08 0 0 0
13342 1 2 0 16.706821798910074 15.017426863487914 -2.2188380229759878e-07 0 0 0
9688 1 2 0 21.225306054680576 12.615998589490264 -2.192573901703031 0 0 0
6869 1 1 0 22.689997858673618 13.21229504098124 -1.6462482077261618 0 0 0
9698 1 2 0 23.153272604397987 14.714406356343588 -2.22191336693007 0 0 0
6876 1 1 0 23.731359621770395 16.180036026623775 -1.649452363864791 0 0 0
13349 1 2 0 22.638012520195613 13.294288825485353 -2.3541463601753758e-07 0 0 0
13356 1 2 0 23.72813939022125 16.096742334495154 -1.419791951671721e-07 0 0 0
6973 1 1 0 18.613243388261633 17.309004674115435 -1.6544672034073409 0 0 0
9862 1 2 0 20.154104587912567 17.28298658540601 -2.214531967117464 0 0 0
9709 1 2 0 22.773212681287546 17.40416704280653 -2.2267403622647737 0 0 0
9702 1 2 0 28.352147091560486 12.70201045333509 -2.1947201365812696 0 0 0
6874 1 1 0 29.457056689510363 13.837803778761057 -1.647176054405931 0 0 0
9704 1 2 0 29.253884613107264 15.378076122961291 -2.2273223841976235 0 0 0
9708 1 2 0 25.25831888572449 16.626112341011975 -2.1682666650887694 0 0 0
6875 1 1 0 29.256425678949547 16.93930914767132 -1.6492436876337404 0 0 0
13354 1 2 0 29.371856141250017 13.847173718732213 -1.1377530844165107e-06 0 0 0
6877 1 1 0 26.306539473090996 17.82570891109774 -1.6500547330282547 0 0 0
9706 1 2 0 27.82873602720465 17.548207942904657 -2.2193212543587753 0 0 0
9705 1 2 0 30.975353421719905 13.474706634533746 -2.190951874475673 0 0 0
6882 1 1 0 32.06543138386234 12.372758582610597 -1.64589952248843 0 0 0
9718 1 2 0 33.56305555975994 12.673142116105522 -2.2682814188282383 0 0 0
6884 1 1 0 34.86648083149796 13.48151745052809 -1.6466482570590193 0 0 0
9720 1 2 0 34.659734767641226 15.058281907891645 -2.124416242929843 0 0 0
13362 1 2 0 32.13032480454858 12.391294126003052 -1.7743945895774343e-07 0 0 0
13364 1 2 0 34.84743165333781 13.413470275391717 -6.197027702446852e-07 0 0 0
9707 1 2 0 30.5394611645828 17.887913987992007 -2.1696310439314264 0 0 0
9722 1 2 0 35.04190142559363 17.784878987647495 -2.221673462263844 0 0 0
9721 1 2 0 36.30018023385541 12.762204338330344 -2.1454098289967196 0 0 0
6891 1 1 0 40.60449979473841 13.290145177505693 -1.646401088335925 0 0 0
9723 1 2 0 37.074811719997804 15.860408391845366 -2.2616760201474704 0 0 0
6892 1 1 0 38.572018888994535 15.563987061292483 -1.6442419671337687 0 0 0
9732 1 2 0 39.33055302345761 14.197252985485745 -2.216279745350181 0 0 0
6885 1 1 0 35.60971551627658 16.33427530604257 -1.6429672725149627 0 0 0
9734 1 2 0 39.38513130280995 16.887654558937893 -2.174512152699791 0 0 0
9744 1 2 0 44.38409569536741 12.350975328806715 -2.2125657729912973 0 0 0
9733 1 2 0 42.07085242691749 13.78226082938869 -2.2142167969540387 0 0 0
6899 1 1 0 43.62919710010803 13.730870089038165 -1.649356498890815 0 0 0
9745 1 2 0 44.237304991282414 15.219260674577932 -2.157794396305687 0 0 0
9870 1 2 0 42.00564298442596 16.732631502972893 -2.1987833132232435 0 0 0
6978 1 1 0 43.566446272704354 16.665767743760366 -1.6451806896777315 0 0 0
13458 1 2 0 43.6526565927593 16.697074458877 -6.390800110647483e-07 0 0 0
13379 1 2 0 43.6737879349849 13.670945740191378 -9.165694462236199e-08 0 0 0
6979 1 1 0 40.74017556648716 17.62496876899012 -1.6411423943880934 0 0 0
9871 1 2 0 44.25521454556313 18.055551533191924 -2.2265635466260174 0 0 0
13459 1 2 0 40.81268811391366 17.682524908895385 -6.271586326823957e-07 0 0 0
6906 1 1 0 48.36786395140054 12.314524216489941 -1.6573863356564522 0 0 0
9754 1 2 0 48.44483448001023 13.911338283120024 -2.2518745183678317 0 0 0
6905 1 1 0 49.5204317192421 14.981680075056138 -1.5048514478513142 0 0 0
9750 1 2 0 50.73371629052736 13.878502439424187 -1.338314333616359 0 0 0
9755 1 2 0 50.004572536318506 16.45704556137748 -2.183900098085357 0 0 0
13386 1 2 0 48.41315864094694 12.390064492233886 -1.5239994003745028e-08 0 0 0
13385 1 2 0 48.9383062670465 15.381704496118957 -2.646521625091101e-07 0 0 0
6980 1 1 0 49.9884242135814 18.08018201906554 -1.6417190071557024 0 0 0
13460 1 2 0 50.16573093459903 18.00471461571623 -3.996734313951486e-08 0 0 0
6903 1 1 0 52.12023934748382 13.041429556798878 -1.493243794888348 0 0 0
6910 1 1 0 55.94804001030129 12.978014589001226 -1.5935109047833094 0 0 0
9751 1 2 0 53.02013117372684 14.115578775521852 -2.3617344849677866 0 0 0
6915 1 1 0 54.053522966376434 15.182523181449245 -1.6505542414567165 0 0 0
9763 1 2 0 55.458538333396554 14.454150399850562 -2.156735408574813 0 0 0
9771 1 2 0 54.00872312814714 16.707828878131455 -2.2769068629508684 0 0 0
6983 1 1 0 54.71796617198547 17.99756286753279 -1.5114284767344486 0 0 0
9879 1 2 0 56.332370024334814 17.89899714661906 -1.33509786051466 0 0 0
9762 1 2 0 57.57368139527908 13.21283747570218 -1.9283563907182295 0 0 0
9764 1 2 0 60.3012701239119 12.349112461342672 -2.2779606082341064 0 0 0
6913 1 1 0 57.9837105039444 14.759975219308718 -1.4725634290638203 0 0 0
9766 1 2 0 59.58244847809597 14.756114979173066 -1.249142024140976 0 0 0
6912 1 1 0 60.81114787192446 13.710294138364077 -1.4860604403395479 0 0 0
9767 1 2 0 61.77710563830562 14.719505910072527 -2.37820227273137 0 0 0
9768 1 2 0 57.7802786169976 16.077216736154856 -2.4422169426331797 0 0 0
6924 1 1 0 62.37782475203191 16.030404013952467 -1.5410506599528988 0 0 0
13404 1 2 0 61.741122738818945 16.129799153615675 -3.085561430357017e-07 0 0 0
7009 1 1 0 57.88081947751146 17.449516676899812 -1.5189371738778308 0 0 0
9785 1 2 0 62.18716027588647 17.500346968396496 -2.264425234941011 0 0 0
9781 1 2 0 63.80452820519843 12.837914059979683 -2.2101979002125782 0 0 0
9783 1 2 0 63.964388203172795 15.600169569995325 -1.4814404923092572 0 0 0
6923 1 1 0 64.67994850347004 14.102185493851614 -1.5299692350719893 0 0 0
9784 1 2 0 66.07409840496591 14.570479235639601 -2.3063995510165958 0 0 0
6932 1 1 0 67.03243796603643 15.771996758196336 -1.6431802410091843 0 0 0
9798 1 2 0 66.87682876024323 17.31978682152572 -2.230747583930324 0 0 0
9796 1 2 0 68.53982461787906 15.24571781129706 -2.0572964512608296 0 0 0
9794 1 2 0 68.40181919242777 12.475009819825031 -2.2328104596941576 0 0 0
13403 1 2 0 65.05271661812307 13.557211403277684 -1.0648227443885554e-07 0 0 0
6931 1 1 0 69.21740831404092 13.801659687019638 -1.6371537398710192 0 0 0
9797 1 2 0 70.7457018869515 13.926732676045715 -2.2409047312138832 0 0 0
6938 1 1 0 72.05380440704913 14.742185279940983 -1.6513268014022726 0 0 0
9806 1 2 0 73.3190120975611 13.869741094307324 -2.241524286083483 0 0 0
9808 1 2 0 72.12501814629356 16.306050961854393 -2.2023684753018 0 0 0
13411 1 2 0 69.28025710810873 13.64241289122107 -5.44765158113798e-07 0 0 0
7017 1 1 0 72.6529548338145 17.782775088296628 -1.6486951350550207 0 0 0
6937 1 1 0 74.419008964625 12.800603846973607 -1.6432669170477485 0 0 0
9807 1 2 0 75.87652459110342 13.37017068022522 -2.1578797180344376 0 0 0
6946 1 1 0 79.52288423662878 13.476581595664248 -1.648507540847775 0 0 0
6948 1 1 0 76.75320142057936 14.672343603894124 -1.6457609145811882 0 0 0
9822 1 2 0 78.26227759520745 14.361065994237903 -2.238638526077806 0 0 0
9825 1 2 0 76.16650672557404 16.10754525081509 -2.233739229953777 0 0 0
13417 1 2 0 74.33022541103065 12.741349306995785 -2.2626367086528994e-07 0 0 0
13426 1 2 0 79.48137866323859 13.430229505218534 -5.022400881494314e-07 0 0 0
13428 1 2 0 76.76256221922284 14.761447729620873 -3.2726812317982e-07 0 0 0
9892 1 2 0 74.21825479816587 18.03151291615758 -2.1826874187941216 0 0 0
6991 1 1 0 75.7425628672409 17.606580881776587 -1.6496545076581344 0 0 0
13471 1 2 0 75.73739276113105 17.59903214165734 -1.5846135037702676e-08 0 0 0
9823 1 2 0 80.83991681216773 14.28330524458059 -2.2054590269598062 0 0 0
6951 1 1 0 82.37024874474189 14.48561745056778 -1.646791924818177 0 0 0
9828 1 2 0 83.28649849765627 13.25572513294885 -2.2501353504421346 0 0 0
9830 1 2 0 82.89559913077198 15.928648300963053 -2.234718835617149 0 0 0
13431 1 2 0 82.41908699670095 14.47334910681494 -8.398877195227283e-07 0 0 0
6990 1 1 0 82.95355261521652 17.472499484876263 -1.6497980061213104 0 0 0
9890 1 2 0 84.41751179664003 18.064252924425876 -2.1981228589576944 0 0 0
13470 1 2 0 82.95410373055473 17.500069654817317 -4.0779300958025456e-07 0 0 0
9829 1 2 0 85.81465579129188 12.507416253031817 -2.2722755190248733 0 0 0
6956 1 1 0 87.3245492717702 12.631648077545954 -1.6496170070522944 0 0 0
9839 1 2 0 87.95010056292436 14.044571891857677 -2.2125908333749673 0 0 0
6963 1 1 0 87.97459734418344 15.59050336994449 -1.6486763590997602 0 0 0
9849 1 2 0 86.64048478059847 16.40363765675218 -2.197098806586509 0 0 0
9848 1 2 0 89.40161341672871 16.209491534321998 -2.2335823806440955 0 0 0
6964 1 1 0 90.92351429906665 15.955196879916738 -1.6465009987456654 0 0 0
13444 1 2 0 90.8496013056865 15.999014361052799 -8.210245452277464e-07 0 0 0
6994 1 1 0 85.96950019541129 17.823505737628142 -1.649585353426957 0 0 0
13474 1 2 0 85.94296884656735 17.842935270371825 -4.4039202048922485e-07 0 0 0
9844 1 2 0 93.33875201389245 12.529742711171425 -2.193103532027007 0 0 0
9846 1 2 0 91.6219341054128 14.551716676605544 -2.1798835154416305 0 0 0
6962 1 1 0 93.11455381741325 14.074250323929087 -1.6493755959130907 0 0 0
9847 1 2 0 94.39325835789606 14.965539689594634 -2.2263451577742486 0 0 0
6969 1 1 0 95.91870955523927 14.675629021093927 -1.645296073355536 0 0 0
13449 1 2 0 95.88362339253148 14.763110259168204 -5.356687160375646e-07 0 0 0
9856 1 2 0 96.39943511710555 13.190696652844592 -2.1627492217509983 0 0 0
9850 1 2 0 91.98784074858357 17.07691167082783 -2.2247066874649595 0 0 0
13442 1 2 0 93.12575719917751 14.12639879987424 -1.765152280577395e-07 0 0 0
9900 1 2 0 95.79203096843534 17.87896846421152 -2.2118454672449803 0 0 0
6968 1 1 0 97.79422662531928 12.486847933555659 -1.643674349338928 0 0 0
9173 1 2 0 99.13567949580116 13.239289390495998 -2.221451766430725 0 0 0
6535 1 1 0 100.68272378584741 13.25586770463912 -1.6492895974540074 0 0 0
9171 1 2 0 101.29799595769222 14.660241176482206 -2.255003749112518 0 0 0
9857 1 2 0 97.10639138480363 15.688984156477222 -2.1954356554520382 0 0 0
6534 1 1 0 101.8199417027293 16.099302834406256 -1.646898209201142 0 0 0
6997 1 1 0 97.1971757346366 17.238215191597593 -1.64342816140075 0 0 0
9172 1 2 0 100.97652643532773 17.389364443526837 -2.226910110886254 0 0 0
9434 1 2 0 98.45500080254016 18.066559940506426 -2.2787911315732723 0 0 0
9353 1 2 0 9.281477628448224 18.14962737240259 -2.2379457121676056 0 0 0
6641 1 1 0 9.488515790663472 19.692966566434244 -1.64054126302668 0 0 0
9355 1 2 0 10.945753060873276 20.10619188110242 -2.2513807355244517 0 0 0
6689 1 1 0 7.4570652542942995 22.059594812683162 -1.6159631627961735 0 0 0
9356 1 2 0 8.55377176909279 20.953940774935397 -2.206448113823692 0 0 0
6642 1 1 0 12.197347019916034 20.946041036287816 -1.6370008939077059 0 0 0
9358 1 2 0 12.269388384172434 22.475888671610875 -2.2351039548885567 0 0 0
9429 1 2 0 7.455915382713393 23.604720961251324 -2.2446186419911935 1 0 0
6644 1 1 0 13.764518074408294 18.561447209874874 -1.5204536377365976 0 0 0
9357 1 2 0 13.466506000211506 20.03567215124904 -2.1992207413376175 0 0 0
9361 1 2 0 15.39967819861279 18.385729354140985 -1.510275358742195 0 0 0
7000 1 1 0 16.6450556769683 19.464165560686403 -1.5356963332212463 0 0 0
9863 1 2 0 17.88736634350488 18.669651667900172 -2.271038879711785 0 0 0
9903 1 2 0 16.16576481882421 20.821331769473645 -2.352816155706292 0 0 0
7026 1 1 0 15.892343903408035 22.238127302897535 -1.5346803954256059 0 0 0
13506 1 2 0 15.319614931190891 21.916482867103507 -1.7041628642837989e-07 0 0 0
6752 1 1 0 13.268002300403786 23.66353278814555 -1.6485223499404558 0 0 0
9524 1 2 0 14.795802907249842 23.289672507587483 -2.208595592486313 0 0 0
9939 1 2 0 17.396567740291648 22.878064319305267 -1.511257028294312 0 0 0
13232 1 2 0 13.253714312530619 23.793515463532742 -3.972177104463568e-07 0 0 0
6974 1 1 0 21.42438978609115 18.153510297554757 -1.6459882687841205 0 0 0
9864 1 2 0 21.227661749391597 19.72193885987832 -2.1596286126353625 0 0 0
7004 1 1 0 22.193137089797645 20.96565853681447 -1.6429560388357343 0 0 0
9908 1 2 0 21.794923000624014 22.430059921954594 -2.2937827492996057 0 0 0
9866 1 2 0 23.667266567754265 20.532337222578487 -2.210718104286252 0 0 0
13454 1 2 0 21.48546184477926 18.138348531595994 -3.495600879727805e-07 0 0 0
9940 1 2 0 19.64767519464006 23.95248480885709 -2.2830688438095375 0 0 0
7027 1 1 0 21.17315273499178 23.81575436219485 -1.654078651583556 0 0 0
13507 1 2 0 21.209838145947106 23.723842471779907 -2.1921577730337635e-07 0 0 0
9710 1 2 0 25.990156091495283 19.35519900121163 -2.223807108660198 0 0 0
6975 1 1 0 25.195764943183654 20.68279075200807 -1.643903503610193 0 0 0
9865 1 2 0 25.671795031527978 22.17018460930653 -2.192731545692241 0 0 0
9867 1 2 0 28.19841761662508 22.613783729242254 -2.198756525647023 0 0 0
6976 1 1 0 26.7676684691763 23.281687565293943 -1.6459965177419855 0 0 0
13456 1 2 0 26.849639626178668 23.40124654764677 -1.2514506716426428e-07 0 0 0
9725 1 2 0 30.275101925178266 20.555205683841066 -2.190679119144423 0 0 0
6886 1 1 0 31.27265981136477 19.310570681473383 -1.6502739269981925 0 0 0
9724 1 2 0 32.881160485621436 19.443897370145578 -2.1696549600294697 0 0 0
6887 1 1 0 34.48659951792506 19.26663513488481 -1.6529670722577603 0 0 0
6977 1 1 0 29.651807245139832 22.007342793819387 -1.6429970957599995 0 0 0
13457 1 2 0 29.546334953443864 21.904688302727816 -6.100614821510343e-07 0 0 0
13366 1 2 0 31.31023696546117 19.3341343687706 -4.4957700932863707e-07 0 0 0
13367 1 2 0 34.47404136951388 19.283974116085492 1.1034328458585171e-08 0 0 0
9869 1 2 0 30.708937985588285 23.13243089400083 -2.21512076611317 0 0 0
9726 1 2 0 35.58328505481235 20.450962441092212 -2.1757838014075546 0 0 0
7006 1 1 0 36.96231887635883 21.289336539826383 -1.6505902380228479 0 0 0
9909 1 2 0 38.36291566625294 20.557150347324182 -2.201190682288095 0 0 0
7005 1 1 0 39.93101237983499 20.51060679669539 -1.6475265168382136 0 0 0
13486 1 2 0 36.88303938982154 21.26684730977777 -2.3504915934039167e-07 0 0 0
9911 1 2 0 37.192461631488456 22.86439206999957 -2.178959794248212 0 0 0
9872 1 2 0 40.69231139863351 19.160232877904832 -2.2374192839289355 0 0 0
6981 1 1 0 44.53069508081374 19.59314513329617 -1.6496745996724864 0 0 0
9875 1 2 0 46.048974972955016 19.890611753381258 -2.2263622967698518 0 0 0
9910 1 2 0 40.930177919070275 21.747083077522984 -2.1416732152572253 0 0 0
7029 1 1 0 42.50419405101493 22.00930721513768 -1.6466728439273028 0 0 0
9876 1 2 0 43.51218507664563 20.791978030998163 -2.206934581890413 0 0 0
9943 1 2 0 42.909030966569276 23.51743038473508 -2.220572037202425 0 0 0
6982 1 1 0 47.584954514513704 19.890935121894778 -1.641795628273893 0 0 0
9873 1 2 0 48.51451695650007 18.63314976275436 -2.18486121797982 0 0 0
9874 1 2 0 51.13890441323157 19.233851295778486 -2.178876785065109 0 0 0
9877 1 2 0 48.259436152293375 21.29027512533325 -2.2349705182238973 0 0 0
6984 1 1 0 51.62950289324796 20.753269792981953 -1.589645938706618 0 0 0
9881 1 2 0 50.93649813291282 22.088984436562843 -2.3244610147497906 0 0 0
7030 1 1 0 47.96378767151817 22.779624374595553 -1.5861476167376176 0 0 0
13462 1 2 0 47.57574356736644 19.75483540772867 -2.3402270722638859e-07 0 0 0
13464 1 2 0 51.16303043421901 20.680112719191666 -1.1520296114365844e-07 0 0 0
9944 1 2 0 46.62875315825351 23.51693931358235 -2.2198827024049224 0 0 0
9945 1 2 0 49.194740460339446 23.874982078707326 -1.757835684013688 0 0 0
7033 1 1 0 50.818110691634146 23.580934773335542 -1.5862958860963938 0 0 0
13513 1 2 0 51.28904888406532 23.471796338262454 -1.0299322588465862e-07 0 0 0
9878 1 2 0 54.574358909308906 19.369652014759726 -2.4093171823029955 0 0 0
9880 1 2 0 53.19189616217062 21.340354338590004 -1.7219919813294762 0 0 0
6985 1 1 0 54.74192551610792 20.81436743831039 -1.592223371882529 0 0 0
9882 1 2 0 55.93686115817943 21.79572400103635 -2.214352911596607 0 0 0
13463 1 2 0 54.014729678209974 18.13083502030278 -2.1925491800208426e-07 0 0 0
7065 1 1 0 57.455154584397306 22.236053609154144 -1.6506625106182593 0 0 0
9915 1 2 0 58.811354975088776 18.54891956233018 -2.298789859022878 0 0 0
7012 1 1 0 59.46180294283413 19.924400188322 -1.6477431496736303 0 0 0
9917 1 2 0 61.03947484576345 19.97034143962865 -2.1404275207626546 0 0 0
7011 1 1 0 62.323406138309544 19.044491656394005 -1.6478949020627072 0 0 0
9919 1 2 0 58.605250852743325 21.198207337939603 -2.237946628144338 0 0 0
9996 1 2 0 57.89820576630048 23.719340650986883 -2.228133470849053 0 0 0
9918 1 2 0 63.68777056115575 19.74624688383422 -2.244782068555058 0 0 0
9923 1 2 0 66.34178139825244 19.992692916435317 -2.187876554135793 0 0 0
7015 1 1 0 67.37593450657141 18.803468757207487 -1.6502749748122048 0 0 0
7016 1 1 0 64.92345691912568 20.67358030066413 -1.6492583162695105 0 0 0
9925 1 2 0 64.7066916469331 22.220758978131727 -2.205546996032586 0 0 0
13495 1 2 0 67.3816406778622 18.78683788907729 -6.657657488043388e-08 0 0 0
7072 1 1 0 64.68059719987816 23.791167215786558 -1.6497017495992883 0 0 0
13552 1 2 0 64.65082712227496 23.85013159394676 -1.5804828927067486e-07 0 0 0
9924 1 2 0 68.9077205460442 19.13343245775388 -2.1993739837933766 0 0 0
7018 1 1 0 70.30870088522778 19.839958810773396 -1.6491174290974393 0 0 0
9926 1 2 0 71.62684049211916 18.97526911700218 -2.210335246325013 0 0 0
9927 1 2 0 70.34043524429296 21.410618607429665 -2.2002470528364664 0 0 0
10015 1 2 0 68.91930083589509 23.76506543794202 -2.1913220298670235 0 0 0
7077 1 1 0 70.30510334468039 22.983593448724097 -1.6501998195426413 0 0 0
10016 1 2 0 71.71465697286645 23.70624423321606 -2.196646001466533 0 0 0
13557 1 2 0 70.29361887661732 23.00284391923294 -2.807213062607165e-07 0 0 0
9891 1 2 0 76.89841728933665 18.669581499115385 -2.190918988695582 0 0 0
6993 1 1 0 77.71762389411117 20.012589994697873 -1.6501684192684223 0 0 0
9893 1 2 0 79.31680170755847 19.943759915804865 -2.1989043032688818 0 0 0