LAMMPS data file via write_data, version 2 Aug 2023, timestep = 141, units = metal

15624 atoms
2 atom types

7.439567998429544 197.8525423447444 xlo xhi
6.263093877051013 170.76822153535116 ylo yhi
-100 100 zlo zhi

Masses

1 28.085
2 15.999

Atoms # full

6677 1 1 0 9.624299892534978 6.652411233161985 -1.6502457535358377 0 0 0
9356 1 2 0 8.781591169491039 7.949284497157248 -2.2354324832016053 0 0 0
9397 1 2 0 11.174149639414917 6.843149278907767 -2.2302191893277095 0 0 0
6676 1 1 0 12.496222924951088 7.672165090196831 -1.6468711729724117 0 0 0
9395 1 2 0 12.562480850648324 9.225828084559529 -2.2091736055230458 0 0 0
6648 1 1 0 8.081206738181853 11.52411209623641 -1.648847776843678 0 0 0
9355 1 2 0 9.631904626129895 11.451585180048127 -2.2204724980920383 0 0 0
13158 1 2 0 8.061191010689242 11.586616171460049 -1.0749339111942083e-07 0 0 0
13186 1 2 0 12.444387211322997 7.629618252389121 -1.3995245981132421e-06 0 0 0
13159 1 2 0 7.446713370127415 8.627077805197079 -1.561167918819489e-06 1 0 0
9391 1 2 0 12.36133279242555 11.805167588400629 -2.237687522510763 0 0 0
9398 1 2 0 13.906122507131785 7.043995966104987 -2.2225816491243826 0 0 0
6828 1 1 0 17.865674696962998 6.97866907812737 -1.6468197894436443 0 0 0
9622 1 2 0 17.90459329835793 8.507542612016497 -2.236573977205566 0 0 0
6675 1 1 0 13.314996269491129 10.590389801298796 -1.6498226969373333 0 0 0
6827 1 1 0 18.58542296951535 9.881134218615172 -1.647071116632029 0 0 0
9403 1 2 0 17.577797508798824 11.036042736854812 -2.2328715933178356 0 0 0
6679 1 1 0 16.168480719270384 11.647425455876848 -1.6468991916258824 0 0 0
9396 1 2 0 14.841043161815936 10.851845110507229 -2.250862514913794 0 0 0
9624 1 2 0 16.505670057782655 6.269488441060927 -2.2658573077033806 0 0 0
9637 1 2 0 23.313627556967806 7.027407387590624 -2.241947962608315 0 0 0
6836 1 1 0 23.77213640011727 8.48975176573611 -1.6490400976245254 0 0 0
9623 1 2 0 20.089346940616096 10.144737166871074 -2.2617441272817325 0 0 0
6830 1 1 0 21.56177996258281 10.571592462557245 -1.6493675085752402 0 0 0
9628 1 2 0 22.68429603806704 9.547503903728455 -2.2679873776695136 0 0 0
9625 1 2 0 19.29160726781031 6.349057791090717 -2.1903270979309246 0 1 0
9627 1 2 0 21.98206726173242 12.039245578615727 -2.244772069393122 0 0 0
9644 1 2 0 27.145569395138118 7.020966086834568 -2.1482412924618486 0 0 0
6848 1 1 0 28.566086530909786 6.326058031375579 -1.6405427565185087 0 0 0
9636 1 2 0 25.260426083251502 8.917202434345741 -2.2352323727263013 0 0 0
6840 1 1 0 26.76236274373281 8.566182473484984 -1.6470915758153335 0 0 0
9642 1 2 0 27.867295903004234 9.62425192584955 -2.2663933983181557 0 0 0
6839 1 1 0 28.866951795665177 10.786654919786955 -1.6487193205523392 0 0 0
9655 1 2 0 29.76135360370447 7.381188997148858 -2.116191894203206 0 0 0
13349 1 2 0 28.88042158063631 10.755002434794768 -7.584789524547208e-08 0 0 0
6847 1 1 0 31.354519749604787 7.276182834556448 -1.639001969893118 0 0 0
9643 1 2 0 30.41805905123553 10.665914537925012 -2.211516095598206 0 0 0
6846 1 1 0 31.91519132778959 10.216068978581069 -1.6502776386522946 0 0 0
9653 1 2 0 32.15911054012513 8.637880040625914 -2.1930637908455846 0 0 0
9654 1 2 0 33.031556333220955 11.321422659914358 -2.222289466972002 0 0 0
13357 1 2 0 31.522056587365817 7.254064625986231 -1.8293824521540917e-07 0 0 0
9662 1 2 0 37.88291017726426 7.66764157424243 -2.2410709059423595 0 0 0
9661 1 2 0 37.67695396532092 10.464586336512728 -2.192536279775907 0 0 0
6851 1 1 0 38.49952841614643 9.115243414091678 -1.651286423041717 0 0 0
9663 1 2 0 40.06704334010025 9.290350351359676 -2.2153224701295544 0 0 0
9659 1 2 0 35.60947578785487 12.081176427644413 -2.1996445450034425 0 0 0
6852 1 1 0 37.16601828816732 11.957548089232949 -1.650446539335319 0 0 0
9670 1 2 0 40.977148322172646 11.85761461363451 -2.2267254296513244 0 0 0
13362 1 2 0 37.23784368390344 11.986353217538113 -8.337380813086992e-08 0 0 0
9675 1 2 0 43.49107169504933 7.6502382144372945 -2.310504897099514 0 0 0
6856 1 1 0 41.23939648492262 10.322784788693381 -1.6463810665523095 0 0 0
9671 1 2 0 42.77471977596534 10.083191041573887 -2.2065974443368335 0 0 0
6859 1 1 0 43.95531422988518 9.0805656526694 -1.649234620066046 0 0 0
9676 1 2 0 45.42476611752156 9.438672706033836 -2.287379246204561 0 0 0
13369 1 2 0 44.01271166632078 9.087886626667812 -4.0143495000256833e-07 0 0 0
6864 1 1 0 48.49208821481088 7.291130729777453 -1.6491456890975522 0 0 0
9685 1 2 0 49.928164497536486 6.717740295827536 -2.2522369593315004 0 0 0
9682 1 2 0 48.11965880120852 8.819149443103532 -2.1918724779466845 0 0 0
6863 1 1 0 46.898789518617896 9.818100985303538 -1.6458905018709824 0 0 0
9683 1 2 0 47.11821559468639 11.37091001866421 -2.164909492979911 0 0 0
9693 1 2 0 49.69925833673738 11.504011420150249 -2.240263924304327 0 0 0
9684 1 2 0 47.297008090036684 6.330099865358929 -2.2598810970883747 0 1 0
6869 1 1 0 51.16026143068676 11.946621677903117 -1.6058622717093691 0 0 0
13374 1 2 0 48.5351224390648 7.270268409917209 -5.291011987329438e-07 0 0 0
13379 1 2 0 51.21776120237773 11.568297266309386 -1.0776110369485446e-07 0 0 0
6873 1 1 0 53.528045966534584 7.3195626565753855 -1.6368351237500556 0 0 0
9700 1 2 0 55.099527431056316 7.327746860860316 -2.173174616426213 0 0 0
6868 1 1 0 53.55878533530139 10.1877882999804 -1.6383925496573564 0 0 0
9691 1 2 0 52.87869660646349 8.758789348513059 -2.0952816622712347 0 0 0
9690 1 2 0 55.126165358637955 10.196781825834686 -2.2113698724497293 0 0 0
6870 1 1 0 56.434432649935815 11.057968086849947 -1.642903477072746 0 0 0
9689 1 2 0 52.493258907324304 11.26989514580198 -2.3124442397272236 0 0 0
9703 1 2 0 57.65814893469934 6.479854932230091 -2.2372154463209393 0 1 0
9710 1 2 0 60.3124701506558 6.8574529017733825 -2.2337579900841638 0 0 0
6880 1 1 0 61.050775369452154 8.216751460026448 -1.648901271359812 0 0 0
9711 1 2 0 62.592847224569 8.312331942777908 -2.2292700172171793 0 0 0
9695 1 2 0 57.92305439700102 10.683495147059581 -2.256588280461049 0 0 0
6879 1 1 0 59.466209021947726 10.834201355084607 -1.6500872778977018 0 0 0
9708 1 2 0 60.256801713364304 9.522729907852467 -2.2509681347492885 0 0 0
13390 1 2 0 61.035650125663636 8.222729579654258 -2.0722062407030144e-07 0 0 0
6890 1 1 0 64.01592545010206 7.702884277339776 -1.6487502363458897 0 0 0
9724 1 2 0 65.28663717238248 8.607342052192562 -2.21280272330504 0 0 0
6888 1 1 0 65.99785733930136 10.000990503414675 -1.6509277500840736 0 0 0
9725 1 2 0 67.54734041400799 10.167748599842387 -2.2303393836871988 0 0 0
9723 1 2 0 65.11063380583325 11.259214007864264 -2.2429293878516496 0 0 0
6895 1 1 0 68.98826114265495 9.577751861645561 -1.646361242737782 0 0 0
13405 1 2 0 68.97184702829006 9.660861051041481 -4.1532281451225745e-07 0 0 0
13398 1 2 0 66.00282987828123 10.015590469157797 -2.4576011836530554e-08 0 0 0
6899 1 1 0 69.89941211509519 6.720569814697297 -1.6473546484215276 0 0 0
9735 1 2 0 69.0519101453395 8.021787803909305 -2.1904549962915434 0 0 0
9742 1 2 0 71.42415115690434 6.789811103399783 -2.2684313129958986 0 0 0
6904 1 1 0 72.94212335473453 6.640217764507786 -1.649104887206283 0 0 0
9747 1 2 0 73.85223645999565 7.8897246259979426 -2.2168216546487707 0 0 0
9734 1 2 0 70.37567602452584 10.311545585326092 -2.1934858944338442 0 0 0
6903 1 1 0 74.25640651911002 11.63639738393758 -1.6518461627753325 0 0 0
6896 1 1 0 71.09721444913025 11.71069990874991 -1.6454729786190114 0 0 0
13413 1 2 0 74.2249684066556 11.631059565701515 -3.972948941162075e-07 0 0 0
9737 1 2 0 72.67603794948408 11.790928228768022 -2.2176968450192756 0 0 0
13406 1 2 0 71.20386168118984 11.764326429241788 1.1471194988033741e-06 0 0 0
6902 1 1 0 75.1944020518212 8.677581306498535 -1.6471588938045112 0 0 0
9748 1 2 0 76.57661797918811 7.913432092496506 -2.205013533970604 0 0 0
6905 1 1 0 77.61944377515563 6.7277028160085095 -1.6501179616829986 0 0 0
9751 1 2 0 79.15233909150938 6.991188031095769 -2.2137340085055333 0 0 0
9746 1 2 0 75.00550945947394 10.238073653773514 -2.193742110197795 0 0 0
13412 1 2 0 75.24511693278164 8.667660265125264 -2.4609356474209152e-08 0 0 0
9754 1 2 0 80.30056554327656 11.576668238543256 -2.191978594187563 0 0 0
6907 1 1 0 80.70507566433706 7.163464429457813 -1.647743117496701 0 0 0
6906 1 1 0 81.30719966133103 10.321613254074643 -1.6482262614160916 0 0 0
9753 1 2 0 81.08346712651682 8.72658215329754 -2.1629139334921437 0 0 0
9755 1 2 0 82.80319362121554 10.72543071445329 -2.228873016261065 0 0 0
9768 1 2 0 85.20077196548662 9.55219440200943 -2.2028529986035688 0 0 0
6916 1 1 0 84.34149930318318 10.877684875840636 -1.6517387548866422 0 0 0
13417 1 2 0 80.78016007489542 7.128257052572719 1.0604095275511528e-07 0 0 0
9769 1 2 0 87.0171885219691 7.401034104660207 -2.248636548717482 0 0 0
6924 1 1 0 91.2877147058076 7.99277840332505 -1.6490824228765013 0 0 0
6915 1 1 0 86.63175369028076 8.905695256347489 -1.6391006449709824 0 0 0
9770 1 2 0 87.74378244165545 10.03591485690402 -2.1142654162019108 0 0 0
6921 1 1 0 89.30437905115399 10.32183825474886 -1.6417485446806164 0 0 0
9779 1 2 0 90.15386355647108 9.040472080308112 -2.2643745959624018 0 0 0
9784 1 2 0 91.21481494910282 6.420545173571919 -2.1912869713149643 0 0 0
9778 1 2 0 89.74140909049036 11.849922887045139 -2.1827035931534575 0 0 0
9783 1 2 0 92.67448891137343 8.633741028585238 -2.2381184695502587 0 0 0
9788 1 2 0 95.12984760727547 7.829629581036776 -2.225443272753848 0 0 0
6935 1 1 0 95.82518732926862 6.435043091477322 -1.6420800529617812 0 0 0
6926 1 1 0 94.14917463708885 9.040239883599481 -1.64806507306751 0 0 0
9785 1 2 0 94.43857338139405 10.568598731260247 -2.248968827822521 0 0 0
13436 1 2 0 94.2178821428354 9.083495803546603 -4.1053509077588747e-07 0 0 0
6925 1 1 0 94.64306119400004 12.10598738303548 -1.645423326467079 0 0 0
9798 1 2 0 97.39392579468817 6.520115886402564 -2.1588194417070015 0 0 0
6934 1 1 0 98.55390792373684 7.575354759541212 -1.648325414454409 0 0 0
9799 1 2 0 99.98719419404358 6.978391644626436 -2.2290600881026186 0 0 0
6930 1 1 0 99.01135876617269 10.457250757456347 -1.6427809712040555 0 0 0
9794 1 2 0 98.22946044283451 9.108596399771775 -2.222764417130501 0 0 0
9359 1 2 0 100.57927810487676 10.237712682639353 -2.1393267342979576 0 0 0
6651 1 1 0 101.7627858506578 11.270617600041028 -1.6428194006110017 0 0 0
13444 1 2 0 98.59191127075965 7.624082871792984 -5.24710310273993e-07 0 0 0
13440 1 2 0 98.85195224001089 10.515288000837332 -3.613498616879867e-07 0 0 0
13161 1 2 0 101.81441973497982 11.308993570716146 -3.791057075659236e-07 0 0 0
9793 1 2 0 98.5418562571694 11.92088139823877 -2.2568471233119487 0 0 0
6672 1 1 0 10.913893350886246 12.317099796220582 -1.6434962287429513 0 0 0
9390 1 2 0 10.671009030785218 13.845319564311364 -2.18574937008794 0 0 0
6673 1 1 0 11.381803957612311 15.22578079351691 -1.6493624911741962 0 0 0
9392 1 2 0 10.373288719985075 16.36510547562053 -2.2848169133828304 0 0 0
9393 1 2 0 12.941421741441392 15.207590279070057 -2.2373514597992967 0 0 0
13183 1 2 0 11.424124560374514 15.33652514579151 -1.0760181038791119e-07 0 0 0
9388 1 2 0 7.84111662009654 17.584740621610745 -2.2125932406318825 0 0 0
6674 1 1 0 9.402802339686184 17.533916836161882 -1.645559118253502 0 0 0
13184 1 2 0 9.354819956114575 17.416956501736465 -2.876983436970529e-07 0 0 0
9402 1 2 0 16.234567276110717 13.191865632529469 -2.2093392587885985 0 0 0
9400 1 2 0 15.756293190113073 15.679493555499935 -2.2347157103230817 0 0 0
6680 1 1 0 16.87644713216252 14.606500832965532 -1.6481973928538114 0 0 0
9404 1 2 0 18.38806908659221 14.958744077610179 -2.2442073794748834 0 0 0
6678 1 1 0 14.251289862827644 16.02864800832552 -1.6379871278651865 0 0 0
9401 1 2 0 13.96324673219409 17.569256405885266 -2.125756215860953 0 0 0
9629 1 2 0 21.084539203452934 14.467758661864567 -2.233226712852705 0 0 0
6832 1 1 0 19.874696033732462 15.426933290297471 -1.649064420268361 0 0 0
6831 1 1 0 22.315132283026205 13.531196790506344 -1.6487350796210758 0 0 0
9630 1 2 0 23.821981718406533 13.908273722531863 -2.2358732347938286 0 0 0
9631 1 2 0 20.286439229437033 16.917328158113207 -2.2226033030456382 0 0 0
9639 1 2 0 28.223448100161267 12.185975048732141 -2.2287580087087906 0 0 0
6838 1 1 0 25.1274684526479 14.742630905258533 -1.6451035691462417 0 0 0
9638 1 2 0 26.59178524335559 14.230597502220709 -2.2402365461040126 0 0 0
6837 1 1 0 28.059654184882714 13.712464008713997 -1.6478792632724257 0 0 0
9640 1 2 0 29.410064002200016 14.511423343781372 -2.2018550142364144 0 0 0
9641 1 2 0 24.873613962311552 16.283082340160334 -2.1776881588109975 0 0 0
9648 1 2 0 29.574767975523255 17.111733562491956 -2.232634598506936 0 0 0
13347 1 2 0 28.02588771201426 13.791738576412039 -1.624006408909232e-08 0 0 0
6844 1 1 0 25.432164832715255 17.736691972977052 -1.645998740357552 0 0 0
9650 1 2 0 26.9470444590534 17.95669697588517 -2.2678007266880194 0 0 0
6849 1 1 0 34.099682121628554 12.481497041924182 -1.6472848298591811 0 0 0
9658 1 2 0 33.827960418304784 14.030740655306728 -2.2000928522803194 0 0 0
6843 1 1 0 30.341467445480294 15.773249597382415 -1.6469102345244093 0 0 0
9649 1 2 0 31.899603208683903 15.82175002272155 -2.2215150868150073 0 0 0
6850 1 1 0 33.45386724047031 15.562032312486318 -1.6499046775414534 0 0 0
9660 1 2 0 34.5748861024017 16.70901855662449 -2.1756282120830255 0 0 0
13359 1 2 0 34.027361981157675 12.474374956383036 -6.098451148953652e-07 0 0 0
13360 1 2 0 33.45270265333611 15.59138463772379 -1.4906900043881132e-06 0 0 0
9664 1 2 0 38.05186063755521 13.25805718719283 -2.260065674354126 0 0 0
6857 1 1 0 38.95130030434415 14.497602320374687 -1.5895940373901583 0 0 0
9672 1 2 0 40.59511496544896 14.36509252266598 -1.7986477703903152 0 0 0
9673 1 2 0 38.78611453712243 16.04115392365277 -2.223895083358928 0 0 0
13367 1 2 0 38.50849628880843 14.526316713131376 -5.081535134041102e-07 0 0 0
13451 1 2 0 39.83096589641048 17.197093715531306 9.708927061911153e-07 0 0 0
6941 1 1 0 39.77428215826147 17.28230877627669 -1.6542412265012785 0 0 0
6858 1 1 0 41.72990248526198 13.191723831927286 -1.589528254326261 0 0 0
9674 1 2 0 43.151735610441754 13.703730903346717 -2.2780403787115318 0 0 0
6949 1 1 0 44.15625076312483 14.883633684913375 -1.6514663245462746 0 0 0
9819 1 2 0 45.68521358038938 14.636709542223384 -2.2154460417327746 0 0 0
9821 1 2 0 43.729967388649726 16.379093418200966 -2.2072394034979737 0 0 0
13368 1 2 0 42.059279629649595 12.888552671030133 -4.482404964812569e-07 0 0 0
9809 1 2 0 41.315260672472434 17.422900701880664 -2.2638110696685154 0 0 0
6980 1 1 0 42.835183861589314 17.648039152205577 -1.646837567018309 0 0 0
13459 1 2 0 44.105639386096904 14.856207040529013 -3.910573028415509e-07 0 0 0
6878 1 1 0 48.36637981944956 12.325770044592652 -1.6536151741530603 0 0 0
6948 1 1 0 47.19083159441113 15.061198200908096 -1.6496704951371315 0 0 0
9707 1 2 0 48.1937617920272 13.870730771950104 -2.229518311318456 0 0 0
9692 1 2 0 51.064670811884966 13.589396431119747 -1.8563589080026819 0 0 0
9820 1 2 0 47.718217261683236 16.532311759715263 -2.220919725584287 0 0 0
9698 1 2 0 51.97746854961675 16.033036973670004 -2.2333701775037693 0 0 0
13458 1 2 0 47.18001451746551 15.116720259848698 -2.1420334543885194e-07 0 0 0
9694 1 2 0 56.15134852357051 12.57727143591522 -2.23286109090663 0 0 0
6872 1 1 0 52.352493390026055 14.567615848856523 -1.6017341087841204 0 0 0
9696 1 2 0 53.61204793385173 13.746196030972154 -2.3075382984830815 0 0 0
6871 1 1 0 55.11224817458519 13.692060393405653 -1.637266500133503 0 0 0
9697 1 2 0 55.74045529831011 15.102543937312708 -2.2031476116654813 0 0 0
6887 1 1 0 57.16236228917747 15.670395123751732 -1.6210442404858367 0 0 0
9722 1 2 0 56.94053888893033 17.2651167332653 -2.0861105102850264 0 0 0
6950 1 1 0 52.56931350410253 17.471859216662 -1.6572469565113115 0 0 0
9823 1 2 0 54.07680581040567 17.60802295168545 -2.346441321162178 0 0 0
6983 1 1 0 55.46758434351065 17.835475255526607 -1.497894668113889 0 0 0
9709 1 2 0 60.27420852411645 12.177776595658981 -2.2059115376941882 0 0 0
6885 1 1 0 61.46797384868678 13.19307435349741 -1.6510961076709783 0 0 0
9719 1 2 0 62.95610097000246 12.7970926750884 -2.2510009683978414 0 0 0
9720 1 2 0 58.51266051270397 14.940385813175029 -2.2173948688933605 0 0 0
6886 1 1 0 59.917716815784765 15.66564964372542 -1.6508288476710737 0 0 0
9718 1 2 0 61.15429763281216 14.733652349268773 -2.2188982983418377 0 0 0
9721 1 2 0 59.76755553140451 17.19043954255677 -2.2897911393577735 0 0 0
13395 1 2 0 61.48889675875565 13.145965066241843 -1.2779587705353587e-06 0 0 0
6889 1 1 0 64.49529297597358 12.666823561617152 -1.647683907431113 0 0 0
9726 1 2 0 65.45454131538602 13.88299084340392 -2.2117307964163233 0 0 0
6897 1 1 0 66.40630043439128 15.115063643658008 -1.650408903712543 0 0 0
9738 1 2 0 67.96752537958277 14.816090618573694 -2.207770195518033 0 0 0
9739 1 2 0 65.60798739970464 16.476590301474452 -2.244865941437027 0 0 0
13399 1 2 0 64.46443551078556 12.680338022266547 -2.806344783998994e-07 0 0 0
13407 1 2 0 66.46666662943015 15.183473838516077 -1.2988096742303145e-07 0 0 0
6954 1 1 0 64.71683949226406 17.758691781512333 -1.6360315004110855 0 0 0
9736 1 2 0 69.97314805068909 12.829504233823412 -2.1689199438642874 0 0 0
6898 1 1 0 69.4805291281678 14.331357385725441 -1.6553172980654498 0 0 0
9740 1 2 0 70.77863083349219 15.203359624786291 -2.264252638149675 0 0 0
6956 1 1 0 71.12334665552318 16.670210154978903 -1.5946026517053302 0 0 0
13408 1 2 0 69.422644460671 14.399812652198781 3.675334920855008e-08 0 0 0
13466 1 2 0 71.51692430530922 16.485122780881923 -1.767726042091701e-07 0 0 0
9833 1 2 0 69.62957865066441 17.37200753694156 -1.8129938163872101 0 0 0
9832 1 2 0 72.33273348666988 17.53603286208872 -2.307938665589446 0 0 0
9749 1 2 0 75.20156262288432 12.902734106972844 -2.2067283023671194 0 0 0
9757 1 2 0 77.91900135522594 12.845748052950103 -2.1281529033760034 0 0 0
6909 1 1 0 79.51287141293342 12.96603947914476 -1.6441011922109994 0 0 0
6908 1 1 0 76.56506023415439 13.696847377181255 -1.6474722624535112 0 0 0
9758 1 2 0 76.6979657719142 15.261705614421558 -2.2388877119003716 0 0 0
9759 1 2 0 80.02481500578611 14.475260186240412 -2.2192734964283094 0 0 0
6957 1 1 0 76.36241007126415 16.786578451225576 -1.6359787688978293 0 0 0
9834 1 2 0 74.82268012589469 17.086255883907395 -2.1222137794251936 0 0 0
9848 1 2 0 79.61646357890186 17.42491426419049 -2.1913349769017807 0 0 0
13418 1 2 0 76.48653258081133 13.756240328164218 7.975718055592651e-09 0 0 0
13467 1 2 0 76.54810429673887 16.70618135720129 -5.229681922777022e-07 0 0 0
9771 1 2 0 84.85516788929928 12.362905519615282 -2.2150836362122504 0 0 0
9782 1 2 0 85.67766396927621 15.032240632228456 -2.2598342545846117 0 0 0
6965 1 1 0 80.34289822569076 16.013983111616266 -1.6333926049286873 0 0 0
9847 1 2 0 81.90198031414216 16.308556824747104 -2.114610275916559 0 0 0
6964 1 1 0 85.60223846962555 16.57075652011002 -1.6488323329639063 0 0 0
9845 1 2 0 84.26688576788871 17.295526077020604 -2.276817350292368 0 0 0
6966 1 1 0 82.79241843520877 17.620584341285447 -1.64511468847472 0 0 0
13476 1 2 0 82.80635261309823 17.70720157601989 -3.0021322587457884e-07 0 0 0
13433 1 2 0 85.82416352618706 13.570538594819258 -2.112692570414818e-07 0 0 0
6923 1 1 0 85.91717811943283 13.502906699739649 -1.6437074347205816 0 0 0
9780 1 2 0 87.39299292443641 13.004562042136277 -2.177723824819187 0 0 0
6922 1 1 0 88.93680247140634 13.226962377476193 -1.6460184550230617 0 0 0
9781 1 2 0 89.38953564335638 14.724294239207433 -2.220605406842974 0 0 0
6927 1 1 0 90.47640448387673 15.855426601346835 -1.6491038304102426 0 0 0
13432 1 2 0 89.0362519829812 13.279905940785886 -5.981273107648097e-07 0 0 0
9790 1 2 0 90.33149271112656 17.408266909883487 -2.2398958542347125 0 0 0
9846 1 2 0 86.78730905414052 17.620162355144057 -2.168480265328982 0 0 0
9786 1 2 0 93.56697335120852 13.260484811881549 -2.1852656572332605 0 0 0
9787 1 2 0 96.07179258104024 12.66742304458307 -2.2277998310284968 0 0 0
9789 1 2 0 91.88555276423199 15.260893899892395 -2.2446435657916926 0 0 0
6928 1 1 0 93.34513343855733 14.82481687689498 -1.6470638409876344 0 0 0
9791 1 2 0 94.3636780971136 15.999309725385178 -2.229715241911324 0 0 0
9797 1 2 0 96.6728306231818 17.153613782416127 -2.200993169816105 0 0 0
13438 1 2 0 93.41043482261757 14.826239516026888 -1.8301563863700656e-07 0 0 0
6970 1 1 0 95.12020122503769 17.361762430765005 -1.648284774375525 0 0 0
13480 1 2 0 95.06100131117974 17.36875824019713 -2.0313563129667767e-07 0 0 0
6931 1 1 0 97.5464776388742 13.104154885017339 -1.6486403833419443 0 0 0
9358 1 2 0 101.47492375216694 12.777695230727824 -2.2290138310045795 0 0 0
9795 1 2 0 97.90486448703268 14.613426241321703 -2.2375454981755927 0 0 0
6652 1 1 0 102.18242464374933 14.149382718230774 -1.648124515833171 0 0 0
9360 1 2 0 101.19914626486309 15.290368844808643 -2.2774797742846333 0 0 0
6932 1 1 0 97.89150572188674 16.178264326073233 -1.647351332043559 0 0 0
9796 1 2 0 99.23084268466282 16.99757568534784 -2.182253556128104 0 0 0
6933 1 1 0 100.77320177344617 16.743834153656717 -1.6477314499574842 0 0 0
13162 1 2 0 102.20910120495894 14.185213556205852 -2.1005521214535757e-06 0 0 0
9495 1 2 0 101.88414653554175 17.795894880794215 -2.2479107855520892 0 0 0
9394 1 2 0 10.141307992081275 18.89797847108683 -2.1820187308219334 0 0 0
6714 1 1 0 9.965960418998115 20.43825207261075 -1.6444474099939608 0 0 0
9456 1 2 0 8.5325790187846 20.991661393211235 -2.245063420269936 0 0 0
6715 1 1 0 7.537820404318093 22.16811323931541 -1.6499057327447788 0 0 0
9457 1 2 0 11.289946621522102 21.232172152993577 -2.2336557037072424 0 0 0
6716 1 1 0 12.841057885906812 21.229282978908905 -1.6503824186873535 0 0 0
13226 1 2 0 12.806767743791227 21.136655823131207 -1.0091958768413888e-07 0 0 0
9458 1 2 0 8.221741624915978 23.552505221489707 -2.232867544018129 0 0 0
9460 1 2 0 13.572392167452353 22.586914391732225 -2.2106540385979736 0 0 0
9459 1 2 0 13.813068372212008 20.082923484798556 -2.3106078031752495 0 0 0
6717 1 1 0 14.755418740392424 18.918952833756233 -1.6416531567943475 0 0 0
9461 1 2 0 16.310593278452522 18.88066212317471 -2.2230229548407636 0 0 0
6975 1 1 0 17.602155884152662 19.740254586773883 -1.6471351433374672 0 0 0
9861 1 2 0 17.35586180391844 21.27138653003033 -2.207032635253361 0 0 0
7003 1 1 0 18.027527964162775 22.659177906008267 -1.6441872905467803 0 0 0
13227 1 2 0 14.81718167368322 19.059430794012687 -2.3353105212203715e-07 0 0 0
9902 1 2 0 17.0952550825773 23.857175861799217 -2.281214771655295 0 0 0
13513 1 2 0 17.98509143968168 22.73670373257698 -2.2433833244309754e-07 0 0 0
9804 1 2 0 19.02781961258981 19.20665875760842 -2.273008867960728 0 0 0
6938 1 1 0 20.363113912572747 18.46066768066125 -1.6490273336509729 0 0 0
9803 1 2 0 21.71495091443643 19.21758229191181 -2.2322784241089275 0 0 0
6939 1 1 0 23.16417782430415 19.773920525867446 -1.6491163442735717 0 0 0
9805 1 2 0 23.47399438035358 21.290493688650734 -2.219682301314355 0 0 0
13449 1 2 0 23.138036063996783 19.75502220908538 -5.007063320769913e-08 0 0 0
7002 1 1 0 23.529224963655466 22.839728255640384 -1.6512947999556584 0 0 0
9901 1 2 0 19.617816203083912 22.67931102351792 -2.1415021215006336 0 0 0
7004 1 1 0 20.684029766231536 23.84783386455803 -1.6432603226395548 0 0 0
9899 1 2 0 22.192178504152125 23.607443120727886 -2.2609865936258253 0 0 0
9651 1 2 0 24.398089555722112 18.860288602681806 -2.2585474227117692 0 0 0
6845 1 1 0 28.458223938736285 18.169693748303505 -1.6464503355774367 0 0 0
9652 1 2 0 28.954561361441396 19.624725104968643 -2.2220136577334415 0 0 0
9864 1 2 0 29.71657644828161 22.071145810075716 -2.2936998304792557 0 0 0
9900 1 2 0 24.852511220293973 23.626052905963004 -2.2658198041112647 0 0 0
9907 1 2 0 27.529264364833093 23.508947282355823 -2.222956691429979 0 0 0
7007 1 1 0 29.071678048235736 23.425450289556082 -1.6473885025717951 0 0 0
13355 1 2 0 28.409249353711765 18.089598480113366 -1.589703289769073e-07 0 0 0
6940 1 1 0 35.104807340856 18.229521053865938 -1.6463507014515708 0 0 0
9807 1 2 0 33.952127122827164 19.247748541796117 -2.2402059287421165 0 0 0
6977 1 1 0 30.117746336401424 20.626662242221258 -1.6479165436794105 0 0 0
9863 1 2 0 31.607413650032324 20.251456192585437 -2.2311696477222203 0 0 0
6978 1 1 0 33.124766162462805 20.530114585168675 -1.6473600597855405 0 0 0
9865 1 2 0 33.77207291180403 21.936285392301365 -2.228122338193914 0 0 0
13487 1 2 0 30.137141973567925 20.643033136425437 -3.2701436578675704e-07 0 0 0
13488 1 2 0 33.150016487722816 20.568294803273293 -4.026996019622247e-07 0 0 0
7009 1 1 0 34.022955346399165 23.466885306032328 -1.652039628821739 0 0 0
13450 1 2 0 35.18542673930149 18.14823340746388 -2.3449749428915204e-07 0 0 0
9806 1 2 0 36.52351904968927 18.950547597314625 -2.192507841437834 0 0 0
6942 1 1 0 37.9314102348817 19.695168440743995 -1.6376631701175874 0 0 0
9808 1 2 0 39.108837117947125 18.687836796600962 -2.1799565774845244 0 0 0
9810 1 2 0 38.49867766511415 21.182275175193208 -2.1935416019617047 0 0 0
7010 1 1 0 39.19396503794277 22.617880754426483 -1.64716845221 0 0 0
9912 1 2 0 38.165306395471404 23.787188420120735 -2.2037860623842365 0 0 0
9913 1 2 0 40.71535674419103 23.125732649871665 -2.1973726949957997 0 0 0
9867 1 2 0 43.58953101416784 19.04204965737088 -2.179449986587853 0 0 0
7014 1 1 0 45.02903834166626 19.70598725219301 -1.6489403663768303 0 0 0
9825 1 2 0 46.29653526640414 18.806731271217423 -2.2200543002124316 0 0 0
9918 1 2 0 45.24294562493065 21.244697839935345 -2.232587815354769 0 0 0
9972 1 2 0 43.44618984526404 23.14188664643295 -2.1858300878220134 0 0 0
7051 1 1 0 44.975951366242306 22.776666707437514 -1.6494041052274817 0 0 0
9973 1 2 0 46.15029400910078 23.820448120299318 -2.2332865846594427 0 0 0
13524 1 2 0 45.046281445347525 19.73668874781004 -1.1701264003342935e-07 0 0 0
6951 1 1 0 47.678713051459354 18.0973686427366 -1.6501100601305076 0 0 0
9824 1 2 0 48.96045067846188 18.977932691827995 -2.2386616154159245 0 0 0
6952 1 1 0 50.392409999943936 19.575701691200628 -1.6483619508954024 0 0 0
9822 1 2 0 51.60427125936393 18.642223814815758 -2.273725971372621 0 0 0
9826 1 2 0 50.71638133697158 21.115677281444857 -2.183964615790324 0 0 0
7015 1 1 0 51.826336719149744 22.241303086742324 -1.6524052606723876 0 0 0
9920 1 2 0 51.3680846208099 23.74100448711978 -2.2063719521006453 0 0 0
9871 1 2 0 55.67345209453442 19.44373433599437 -1.40704319231601 0 0 0
6990 1 1 0 57.00709664217853 20.42714597266491 -1.5036984765525836 0 0 0
9919 1 2 0 53.34350335906616 21.852240647706587 -2.250308812825902 0 0 0
7016 1 1 0 54.82592429260627 22.28629622255622 -1.624312212387241 0 0 0
9882 1 2 0 56.23657440307423 21.67249513518509 -2.302914141966069 0 0 0
13500 1 2 0 57.55610457383131 20.93811290851612 7.848073624374801e-09 0 0 0
9828 1 2 0 58.275003266031256 19.67535372606816 -2.278275634846765 0 0 0
6953 1 1 0 59.32299510489314 18.60574343234674 -1.5306027081644802 0 0 0
9827 1 2 0 60.74863398406122 19.39911860960537 -1.4941769328432652 0 0 0
6955 1 1 0 62.38153385081462 19.504809995334636 -1.5275565859602591 0 0 0
7021 1 1 0 61.602360162009795 22.284933085388182 -1.6584809608010587 0 0 0
9831 1 2 0 62.46876921871073 20.996347737957564 -2.3010894503331665 0 0 0
9829 1 2 0 63.13454506937669 18.11951657128321 -2.134962372285739 0 0 0
9930 1 2 0 60.021085955829 22.580723739259838 -2.174437620088752 0 0 0
9929 1 2 0 62.42986780112535 23.612504624064904 -2.1947054846684084 0 0 0
13463 1 2 0 58.737378623681124 18.282661385169273 -8.063850950317664e-08 0 0 0
9830 1 2 0 65.4209855975893 19.14118610984243 -2.2004732927017057 0 0 0
6993 1 1 0 66.67006349327656 20.04366606556585 -1.6487825076201867 0 0 0
9886 1 2 0 68.01220992331339 19.39181236474918 -2.361094632017818 0 0 0
9887 1 2 0 66.50875190251033 21.541494006035638 -2.2743964854201466 0 0 0
13503 1 2 0 66.6800714512513 20.064627029352692 -1.001005891345052e-06 0 0 0
7020 1 1 0 66.44942103164124 23.060578832113016 -1.6525457664241894 0 0 0
9927 1 2 0 65.12255085055837 23.726620856672508 -2.3201814279903754 0 0 0
6994 1 1 0 69.38806862814715 18.971611842398474 -1.5954307876604796 0 0 0
9888 1 2 0 70.72910753272295 19.743661451296234 -2.179720579135729 0 0 0
6958 1 1 0 73.71010339059663 18.198768854337704 -1.6460341593645023 0 0 0
9836 1 2 0 74.1536567417037 19.69512918721146 -2.246509883753786 0 0 0
7025 1 1 0 70.9910774814181 21.27919481060045 -1.6348130272708996 0 0 0
9935 1 2 0 72.43541676357292 21.748280572420658 -2.2534664780998654 0 0 0
7026 1 1 0 73.89973503206559 21.2247818729174 -1.6482324645070237 0 0 0
9936 1 2 0 69.68125108514921 22.124581115477408 -2.16715749951687 0 0 0
7061 1 1 0 69.24761380340529 23.635380439921125 -1.6397106113978863 0 0 0
13571 1 2 0 69.25844720806977 23.720391187163926 -3.2110575697286573e-07 0 0 0
9835 1 2 0 77.18182890470676 18.147907944089685 -2.162145828909101 0 0 0
6997 1 1 0 78.67074551356606 18.705903902557466 -1.644250537496182 0 0 0
9892 1 2 0 78.92806181012693 20.293593379022184 -2.1843309542388516 0 0 0
7030 1 1 0 79.70737306647527 21.72324628774881 -1.6407488956573897 0 0 0
9937 1 2 0 74.92204219911746 22.44923044429943 -2.146663133198294 0 0 0
13507 1 2 0 78.79723628792551 18.790518289098113 1.0617294884350011e-06 0 0 0
9943 1 2 0 79.36163655155592 23.301587552121543 -2.175106211644198 0 0 0
9849 1 2 0 82.34974253052118 19.10793991890585 -2.240641524625835 0 0 0
9941 1 2 0 81.26154514907333 21.550353720512124 -2.1741476899276795 0 0 0
7029 1 1 0 82.53344977614064 20.65184372903728 -1.645198072604994 0 0 0
9942 1 2 0 83.843021511579 21.475722589263494 -2.218566497209169 0 0 0
7031 1 1 0 85.37178315513434 21.75939639052423 -1.649470204918901 0 0 0
13541 1 2 0 85.45304069428559 21.772094195041745 -5.905451418136961e-07 0 0 0
9944 1 2 0 85.81603812483425 23.266543033498774 -2.203930195278263 0 0 0
6967 1 1 0 87.0957032814436 19.176262101977244 -1.64268308322246 0 0 0
9850 1 2 0 88.61849096872167 19.467939691626405 -2.178895585563413 0 0 0
6968 1 1 0 90.08434235957995 18.9493616203537 -1.6432513611653294 0 0 0
9852 1 2 0 91.0756002584581 20.156100372772684 -2.209539252826771 0 0 0
9851 1 2 0 86.24265194075969 20.467691932193098 -2.245786695820609 0 0 0