LAMMPS data file via write_data, version 2 Aug 2023, timestep = 140, units = metal

15672 atoms
2 atom types

7.880851774395508 197.08456843552327 xlo xhi
5.860547491712643 171.9694544576392 ylo yhi
-100 100 zlo zhi

Masses

1 28.085
2 15.999

Atoms # full

9338 1 2 0 9.173660491090251 6.00405211182943 -2.2282358682703247 0 0 0
6644 1 1 0 10.667841742072115 6.443967463267065 -1.644486053451831 0 0 0
9336 1 2 0 11.238676966247136 7.874470392000849 -2.213144255357489 0 0 0
9334 1 2 0 9.47115787559642 9.766649747132101 -2.1926304070424116 0 0 0
6643 1 1 0 11.007674414407603 9.408033612465758 -1.6424551408035626 0 0 0
9337 1 2 0 12.215780227177758 10.371100804744039 -2.2450853855567563 0 0 0
13173 1 2 0 11.098016620895388 9.529432193387391 -3.319233030356557e-07 0 0 0
6641 1 1 0 8.054350679501084 9.247880496493362 -1.4910333295994227 1 0 0
13174 1 2 0 10.62879712024205 6.49185185257274 -1.1164707982717392e-06 0 0 0
9607 1 2 0 16.408339484581845 7.260990702167557 -2.206664864213194 0 0 0
9361 1 2 0 14.841809979773755 9.727571616428571 -2.1637197500885974 0 0 0
6821 1 1 0 16.184283247862922 8.844544450822735 -1.6473949167134287 0 0 0
9608 1 2 0 17.48617843005863 9.694150051349379 -2.2165902029669917 0 0 0
6825 1 1 0 18.79148968286877 10.526885185328059 -1.6460666200119611 0 0 0
6659 1 1 0 13.70422866255715 10.862227426064262 -1.6506264780876294 0 0 0
13355 1 2 0 18.804374818829448 10.53017550707473 -1.0477546589270862e-07 0 0 0
9619 1 2 0 21.629892742665938 7.506876667817549 -2.2361936998698724 0 0 0
6829 1 1 0 22.44652533834693 6.189580110389659 -1.640228572339078 0 0 0
9622 1 2 0 24.03355889132646 6.366321379094962 -2.086019422207033 0 1 0
9615 1 2 0 20.14352622662487 9.765545241018376 -2.227792877369696 0 0 0
6828 1 1 0 21.527423346134185 9.06478416567922 -1.6486723214188794 0 0 0
9620 1 2 0 22.819735376480327 9.939634575513221 -2.196482368526752 0 0 0
6834 1 1 0 23.796542126490085 11.1616920194401 -1.6451527403352095 0 0 0
13364 1 2 0 23.820505755654043 11.232378967810805 -4.590606436491473e-07 0 0 0
13358 1 2 0 21.50665092040963 9.05565920939791 -2.6243115781862305e-07 0 0 0
9637 1 2 0 28.858719680801805 7.088757384632623 -2.224736746142612 0 0 0
9629 1 2 0 28.023631009291282 9.679816968298805 -2.18193733439421 0 0 0
6839 1 1 0 29.208719580198828 8.599403489422185 -1.6477993410139884 0 0 0
9627 1 2 0 25.32030466491633 10.722374171434714 -2.178837105556485 0 0 0
6833 1 1 0 26.91094639427979 10.829853448269926 -1.650343599395661 0 0 0
9639 1 2 0 26.577799843679863 5.898838293478368 -2.242479435751031 0 1 0
6850 1 1 0 35.14772198632069 7.855812111306549 -1.6478261973516715 0 0 0
9656 1 2 0 35.2748767153417 6.288110270935527 -2.2036095335961865 0 0 0
9638 1 2 0 30.777364488255362 8.724532073735583 -2.210669411896692 0 0 0
6844 1 1 0 32.2670435380359 9.207968877671952 -1.639512150639002 0 0 0
9646 1 2 0 33.66762050870609 8.452317068002285 -2.198960182066516 0 0 0
9643 1 2 0 32.199360269475854 10.783050224326692 -2.141664917571968 0 0 0
9644 1 2 0 34.6458464868972 11.518350899483416 -2.0787815940636793 0 0 0
9654 1 2 0 36.5528852858023 8.630399384754604 -2.1547943698932257 0 0 0
6849 1 1 0 37.82863541509652 9.616165389341779 -1.648738614838805 0 0 0
9655 1 2 0 39.378295442807364 9.057197848542588 -2.1365768267223375 0 0 0
6853 1 1 0 41.02844924512178 8.74968543699834 -1.6477294757683434 0 0 0
9648 1 2 0 37.33653674937185 11.180474082278378 -2.1581540208126833 0 0 0
9662 1 2 0 41.93819469930309 7.3478113623190495 -2.106619631614795 0 0 0
9658 1 2 0 41.86723562179098 10.119768955534347 -2.1640133668872585 0 0 0
9670 1 2 0 46.563054398650344 9.921493917703858 -2.190245201456916 0 0 0
6858 1 1 0 45.84511708272349 11.334732222342971 -1.6486320502743361 0 0 0
13395 1 2 0 42.8119701814048 5.981861473050714 -8.344593142088494e-07 0 1 0
6851 1 1 0 42.67851489730845 11.495626227554771 -1.6493809436546554 0 0 0
9659 1 2 0 44.266722128618596 11.432744370883396 -2.1920052369161818 0 0 0
13381 1 2 0 42.66856377453914 11.52641821999015 -8.074079865792734e-07 0 0 0
9676 1 2 0 47.99116174754842 7.514802471460745 -2.230370350210044 0 0 0
9688 1 2 0 51.540681798618486 8.382694900107564 -2.2843075117917406 0 0 0
6862 1 1 0 47.88692254379358 9.068224808908951 -1.6470088259506988 0 0 0
9677 1 2 0 49.24726397454268 9.847238946074874 -2.2037663828192695 0 0 0
6868 1 1 0 50.79328301837233 9.723288447173918 -1.6488073900698041 0 0 0
9684 1 2 0 51.62649600001002 11.035150413112914 -2.218106857155661 0 0 0
13398 1 2 0 50.76425034614587 9.678453261149205 -1.455117481976737e-07 0 0 0
6864 1 1 0 48.11805969471294 5.963568617367604 -1.6419854341886122 0 1 0
13392 1 2 0 47.84313777309636 9.019965147659619 -7.01959386445559e-08 0 0 0
6876 1 1 0 52.559920334341605 7.2789621049423 -1.6107112459696096 0 0 0
9698 1 2 0 54.094218159826774 7.327057870475395 -2.2398696072216757 0 0 0
6875 1 1 0 55.329935138487066 6.3886864005315225 -1.6452107165234446 0 0 0
9696 1 2 0 56.78632444262206 6.954350888568566 -2.1526836010147012 0 0 0
6874 1 1 0 57.56943345525375 8.306593359019331 -1.6421639367468779 0 0 0
9692 1 2 0 56.80301755784981 9.594575023384918 -2.3052454649220095 0 0 0
9685 1 2 0 54.31309249913317 10.525778151443882 -2.1462291446282435 0 0 0
6871 1 1 0 55.87454838081438 10.767810085078986 -1.6441871639599313 0 0 0
13405 1 2 0 55.24659849279769 6.350178954727342 -2.6949621288929946e-07 0 0 0
13401 1 2 0 55.9502693900214 10.754417680314976 -3.817966103167894e-07 0 0 0
13406 1 2 0 52.63561617818024 7.595192520584758 -2.9439781028978327e-09 0 0 0
13404 1 2 0 57.59805107521667 8.393655026147252 -2.2481980017573222e-07 0 0 0
6866 1 1 0 53.09197712004011 11.525902964082357 -1.6403714594320202 0 0 0
13396 1 2 0 53.02876932609631 11.544392908218683 -2.462650883692638e-07 0 0 0
9697 1 2 0 59.07982746718652 8.279113592427167 -2.2670745352446042 0 0 0
6881 1 1 0 60.50959944158138 7.755363247751705 -1.644416429357699 0 0 0
9708 1 2 0 60.90178836032926 6.307986623310393 -2.2810631255905225 0 0 0
9705 1 2 0 61.67931274457922 8.767200487538986 -2.190160825819612 0 0 0
6879 1 1 0 61.95652344387576 10.29001289439049 -1.642250783036366 0 0 0
9706 1 2 0 63.45210677207586 10.676331932222912 -2.2038716571757786 0 0 0
9704 1 2 0 60.77114261093279 11.282078314393928 -2.221180939994442 0 0 0
6886 1 1 0 65.65147705751123 7.090537090830073 -1.6479505840415425 0 0 0
9717 1 2 0 67.17507287107779 6.759323583786059 -2.2087160717441248 0 0 0
6891 1 1 0 68.72753598763511 6.649029753993252 -1.6464644290872452 0 0 0
6882 1 1 0 64.89796391394482 10.095123062428017 -1.6465571074109269 0 0 0
9710 1 2 0 65.20089966605741 8.57629255721961 -2.2330896114495284 0 0 0
9709 1 2 0 65.97199926322382 11.194563990902815 -2.2348555652927327 0 0 0
13416 1 2 0 65.64753393111124 7.098889647082883 -4.507982825095703e-07 0 0 0
9716 1 2 0 64.59376561828023 5.942205055531742 -2.2204122182687955 0 1 0
13421 1 2 0 68.76611637982546 6.6513709847384455 -7.192201685738331e-08 0 0 0
9723 1 2 0 69.56088145374669 7.982626878740872 -2.2052153588629744 0 0 0
9738 1 2 0 74.37364253102746 7.341075552041654 -2.223231228846568 0 0 0
6890 1 1 0 70.58392804491338 9.173898118609099 -1.6472382099646765 0 0 0
9724 1 2 0 72.08808012145124 8.77770275961857 -2.214340062378387 0 0 0
6899 1 1 0 73.63789553321982 8.706315172356025 -1.6461558219506132 0 0 0
9735 1 2 0 74.44320610983522 10.025513007839532 -2.227586346302583 0 0 0
9721 1 2 0 70.21348848755508 10.70385365407236 -2.2059597304375353 0 0 0
13420 1 2 0 70.54920736099223 9.189488957480506 -6.122798764780449e-07 0 0 0
13429 1 2 0 73.64471616352523 8.698880907533018 -6.206001472451836e-07 0 0 0
6905 1 1 0 74.9426683418683 5.895663197951024 -1.6468597255634057 0 1 0
9746 1 2 0 79.04234766628294 6.589793726463495 -2.2150861316246377 0 0 0
6904 1 1 0 79.74784805286541 7.978667198421184 -1.6467594627273008 0 0 0
9740 1 2 0 78.85018933015401 9.244100245725571 -2.2219854614450343 0 0 0
6897 1 1 0 75.34545148488381 11.280132856427784 -1.6476776216539994 0 0 0
9736 1 2 0 76.88414162909692 11.097154226570261 -2.2262689699578133 0 0 0
6900 1 1 0 78.38510781592589 10.720508449049161 -1.6465326004970728 0 0 0
13427 1 2 0 75.34332002383039 11.29506038295497 -3.787179708076087e-07 0 0 0
9747 1 2 0 81.30208400997289 8.144382108285743 -2.204925525035402 0 0 0
6915 1 1 0 82.85017053127443 7.913697942138135 -1.6482435949428405 0 0 0
9765 1 2 0 83.37672854706197 6.468335406164533 -2.252905288924274 0 0 0
9762 1 2 0 83.9188754053643 9.05165816556136 -2.2154639473108477 0 0 0
6913 1 1 0 84.54794740238486 10.478380158232685 -1.6463554794798139 0 0 0
9761 1 2 0 83.51791435650848 11.63385498194033 -2.2245851509425996 0 0 0
6921 1 1 0 88.95380389249891 6.07021647990189 -1.6456334987283459 0 0 0
9773 1 2 0 88.74932834493302 7.621292643755638 -2.1762454419001305 0 0 0
9767 1 2 0 88.70145911160944 10.317102199654952 -2.232485327401511 0 0 0
6920 1 1 0 89.49784263275869 8.993358428403418 -1.6441490473479383 0 0 0
9774 1 2 0 91.03738288962666 8.854218993329887 -2.2303940999291556 0 0 0
9763 1 2 0 86.07484827020353 10.807326913367817 -2.214769080438062 0 0 0
6916 1 1 0 87.54030809909179 11.353493553977696 -1.6487462405679902 0 0 0
13450 1 2 0 89.51211070134521 9.0822979980925 -6.09943640684677e-07 0 0 0
9782 1 2 0 92.89472463067627 5.893807481378594 -2.238150178516223 0 0 0
6925 1 1 0 94.10680501669844 6.8349995809436175 -1.648739184414651 0 0 0
9783 1 2 0 95.56146485231577 6.2945343777467935 -2.2464926725163123 0 0 0
6924 1 1 0 92.51264898550467 9.304312871751176 -1.64611219028666 0 0 0
9780 1 2 0 93.75977739437256 8.359039275093485 -2.1936987109403727 0 0 0
9781 1 2 0 92.7251977064536 10.815082350453752 -2.2450310798108717 0 0 0
13455 1 2 0 94.13359573481866 6.809241182560267 -5.306316951590262e-07 0 0 0
13454 1 2 0 92.49862493126079 9.292703267150445 -7.665734643293624e-07 0 0 0
9794 1 2 0 99.06722244168628 6.490644148269606 -1.5026909885671804 0 0 0
6933 1 1 0 99.99060882435505 7.830786472117389 -1.534742098151718 0 0 0
9153 1 2 0 101.40797912094932 7.436964336534321 -2.327661382379734 0 0 0
9793 1 2 0 98.9050633603262 8.922637003956815 -2.163793072879528 0 0 0
6932 1 1 0 98.94880048993716 10.499539186744254 -1.6391797802752877 0 0 0
9160 1 2 0 100.44447988701893 10.887104576215238 -2.2239150387702047 0 0 0
13463 1 2 0 100.3911779290202 8.341284660487027 -8.053263658217373e-07 0 0 0
9787 1 2 0 97.74683300091755 11.438974039034765 -2.2835380333749797 0 0 0
6639 1 1 0 8.087158832201318 14.087537499402506 -1.580833746591038 0 0 0
9331 1 2 0 9.572444512838453 14.604473152773233 -2.189964576421362 0 0 0
9358 1 2 0 12.352440536673534 14.777783424645925 -2.157328459765053 0 0 0
6658 1 1 0 10.912408554224578 15.498670134495194 -1.6508727312924065 0 0 0
13188 1 2 0 10.862193878613175 15.509901241484052 -5.460760093177091e-07 0 0 0
9359 1 2 0 10.836336780107318 17.103356737112634 -2.1893916671563645 0 0 0
9360 1 2 0 13.906383502119994 12.451237658115538 -2.176393925564235 0 0 0
9614 1 2 0 18.684421466793722 12.088098395611555 -2.1974372606338295 0 0 0
6660 1 1 0 13.793748869882586 14.048378088631772 -1.6471874918748923 0 0 0
9362 1 2 0 15.147284110916917 14.909288854893568 -2.1705422899159705 0 0 0
9616 1 2 0 17.92305684211799 14.694008263047083 -2.187225967299383 0 0 0
6827 1 1 0 16.60114516716075 15.589867785433611 -1.649493367743285 0 0 0
9618 1 2 0 16.74353570296361 17.183924013358958 -2.1921037133335926 0 0 0
6826 1 1 0 19.083436824629047 13.607853346104058 -1.646055011920998 0 0 0
9630 1 2 0 23.149399907998248 12.61860406860853 -2.1887202951554894 0 0 0
9617 1 2 0 20.636594511341844 13.912065877417698 -2.1884421607368703 0 0 0
6836 1 1 0 22.22326490856385 13.912206462582155 -1.6483679181449569 0 0 0
6837 1 1 0 23.890888736674764 16.531087947042543 -1.646959807768345 0 0 0
9633 1 2 0 22.87507308292267 15.33922725035228 -2.2074349427715703 0 0 0
13356 1 2 0 19.07001991515704 13.652497729992868 -1.2052453818302578e-06 0 0 0
9628 1 2 0 27.334743693727578 12.309441916537972 -2.2657162966584115 0 0 0
6835 1 1 0 28.204525363741848 13.549988905720989 -1.6219623203864564 0 0 0
9631 1 2 0 27.75091135836239 15.022384677291098 -2.2460477904361507 0 0 0
9632 1 2 0 29.77369908515302 13.143789900972603 -1.9654951022086238 0 0 0
9634 1 2 0 25.39576372604573 16.168399255863548 -2.207808374481156 0 0 0
6838 1 1 0 26.933304499148676 16.336838045097682 -1.6427445396203584 0 0 0
6842 1 1 0 33.129917103025285 12.037568452522688 -1.6336632705395184 0 0 0
6843 1 1 0 31.06230479033414 14.135235332743685 -1.63873238442609 0 0 0
9642 1 2 0 32.451380648323536 13.43751117308097 -2.260587464007253 0 0 0
9645 1 2 0 30.55624950998276 15.558924846971784 -2.3631181721418653 0 0 0
9649 1 2 0 34.90534384856582 16.554191371739545 -2.1818508361846543 0 0 0
9651 1 2 0 32.393439283774676 16.88168093619309 -1.381936630498551 0 0 0
13376 1 2 0 35.015861013651296 15.045575660105406 -5.862995910431454e-07 0 0 0
13372 1 2 0 33.116541374953826 12.208712447017179 -2.0445290264721414e-07 0 0 0
6847 1 1 0 30.761728136026612 16.974530114593712 -1.506750631394201 0 0 0
6848 1 1 0 33.81393735882594 17.67506335770819 -1.5123631357216247 0 0 0
6846 1 1 0 35.71358007880056 15.221779938992166 -1.505375726607265 0 0 0
9647 1 2 0 35.78484280924 13.738083097044615 -2.2903944099618054 0 0 0
6845 1 1 0 36.09690865135876 12.206867410162582 -1.6369296389306103 0 0 0
9650 1 2 0 37.33103917584518 15.424499209490982 -1.3481536739548021 0 0 0
9660 1 2 0 39.85738813887138 14.793150034005249 -2.1477847675406507 0 0 0
6854 1 1 0 38.85348815220399 15.96396589483733 -1.5033033011389063 0 0 0
13375 1 2 0 36.314281527114495 12.380339803138249 -8.406603057697757e-08 0 0 0
9663 1 2 0 38.62782644961684 17.364968346991397 -2.3799036885242986 0 0 0
6852 1 1 0 41.41423273175649 14.394618610914629 -1.6404400573535796 0 0 0
9657 1 2 0 41.9456707680219 12.909750948951421 -2.220181762539947 0 0 0
9669 1 2 0 46.8046063624082 12.583152202589982 -2.2133064810098744 0 0 0
9671 1 2 0 46.11388698577497 15.11373308185931 -2.1616806315672674 0 0 0
9661 1 2 0 42.334759695412096 15.667995367652537 -2.1958479616433446 0 0 0
6860 1 1 0 45.86174764237196 16.66055572847596 -1.6414457288086026 0 0 0
13390 1 2 0 45.787675135464326 16.69348174749447 -6.103520059055945e-09 0 0 0
13382 1 2 0 41.51848445664402 14.271290979509326 -2.6676474355569765e-07 0 0 0
6861 1 1 0 42.888927872434984 17.139454683260112 -1.6504275434381364 0 0 0
9673 1 2 0 44.4399710951899 17.26704207516156 -2.2291735816635607 0 0 0
6859 1 1 0 47.29453184016025 14.065785637276925 -1.6440705289793196 0 0 0
9672 1 2 0 48.7779453227594 14.586917051973646 -2.2184086942630428 0 0 0
9686 1 2 0 51.45477001213489 14.669415277420027 -2.2296520978478176 0 0 0
6869 1 1 0 50.10211192152329 15.423226665763254 -1.647543243733037 0 0 0
13389 1 2 0 47.38040113632238 14.003159153504596 -6.131106013383627e-07 0 0 0
9674 1 2 0 47.16786385364255 17.530208946492028 -2.1778153323059084 0 0 0
9689 1 2 0 50.30309133572262 16.971672894132084 -2.213736951945018 0 0 0
9683 1 2 0 53.473068181065166 13.019747508610875 -2.2098608911208477 0 0 0
9691 1 2 0 56.46193705411823 12.182178016809358 -2.236599942876483 0 0 0
6867 1 1 0 52.98329763228138 14.490891747806769 -1.6456584171319044 0 0 0
9687 1 2 0 54.09575916196425 15.583861028657632 -2.2178597659737345 0 0 0
6872 1 1 0 57.41938683396858 13.380908498578458 -1.645598338620888 0 0 0
9693 1 2 0 56.751828493069986 14.766806907068677 -2.2193022868441257 0 0 0
6873 1 1 0 55.63386806209921 15.83922718832375 -1.6454481645238561 0 0 0
13397 1 2 0 52.94645252678436 14.565188275669664 -1.428881832622454e-07 0 0 0
13403 1 2 0 55.5928118241054 15.79080335576896 -2.594292710074873e-07 0 0 0
9695 1 2 0 56.1671410115566 17.296691496679504 -2.2059050857929 0 0 0
6880 1 1 0 60.40466531153199 12.788347419862225 -1.645113915168085 0 0 0
9694 1 2 0 58.94896309035084 13.257130254472969 -2.262725938713624 0 0 0
9707 1 2 0 61.6435714114572 13.736516544959468 -2.1809723942928416 0 0 0
6885 1 1 0 62.228491658230155 15.179256168150793 -1.6428406275403529 0 0 0
9715 1 2 0 61.19082420670599 16.30620282289736 -2.2431162177906154 0 0 0
13415 1 2 0 62.28202233233293 15.244615003988958 -2.4148502568015394e-07 0 0 0
9816 1 2 0 58.90705327636162 17.648341099701174 -2.254054418731291 0 0 0
6949 1 1 0 60.44534455521232 17.643210271843962 -1.6481799173436922 0 0 0
6883 1 1 0 66.67796013707068 12.565343209816618 -1.6463032048325001 0 0 0
9712 1 2 0 68.20634486308931 12.4814883786924 -2.2366560532384807 0 0 0
9713 1 2 0 63.74503788352744 15.39835292837776 -2.247495863124862 0 0 0
6884 1 1 0 65.28609936179086 15.342544180137898 -1.6480699118449222 0 0 0
9711 1 2 0 65.98542709222328 13.953964757647702 -2.221203908928416 0 0 0
9714 1 2 0 66.06882170010553 16.684595102006632 -2.218456934385051 0 0 0
13413 1 2 0 66.64974903931297 12.582325968870052 -4.725548309185693e-07 0 0 0
13414 1 2 0 65.29144628470311 15.338743499552933 -1.5652695178188822e-07 0 0 0
6889 1 1 0 69.71342208294755 12.194398776604451 -1.6460756463863828 0 0 0
9722 1 2 0 70.56683169880363 13.50130336399373 -2.209187479413713 0 0 0
6894 1 1 0 71.30597905755374 14.879982080740989 -1.646150306610948 0 0 0
9730 1 2 0 72.84559947895391 14.722388965599889 -2.2200306966521004 0 0 0
6898 1 1 0 74.29122029784399 14.176871788566858 -1.6441394911564062 0 0 0
9729 1 2 0 70.70963753713129 16.33743080326603 -2.206260266549365 0 0 0
13428 1 2 0 74.25557493291505 14.110716439328487 -4.5160983595472714e-07 0 0 0
9734 1 2 0 74.69797829744299 12.686487423168057 -2.238206741010779 0 0 0
9739 1 2 0 79.4756379317844 11.820312182226896 -2.222350406411397 0 0 0
9737 1 2 0 75.40090877537091 15.260068898297721 -2.1986124451590077 0 0 0
9741 1 2 0 79.01034623311642 14.427591566256305 -2.165386137800135 0 0 0
6901 1 1 0 80.05777200554594 13.251504081739908 -1.6455023752662425 0 0 0
6902 1 1 0 75.96270711935412 16.70961997639729 -1.6470148188387106 0 0 0
9743 1 2 0 77.52690519131164 16.7631898033608 -2.2178084936842706 0 0 0
6903 1 1 0 78.88036508937732 15.998534722234242 -1.6449762894676754 0 0 0
9745 1 2 0 80.20121694042511 16.772305615875556 -2.257340490824729 0 0 0
13432 1 2 0 75.95958088052502 16.75841136196893 -5.077804238190731e-08 0 0 0
6914 1 1 0 83.10376764766825 13.11618635824957 -1.6436760340271106 0 0 0
9742 1 2 0 81.59517433917564 13.498126623569476 -2.2294440385664624 0 0 0
9764 1 2 0 84.3186603627316 14.156777731660748 -2.1168322869623117 0 0 0
9769 1 2 0 82.90330603947022 16.28457110799597 -2.242394412084012 0 0 0
6917 1 1 0 84.34408277990568 15.752418139151752 -1.6408841190366679 0 0 0
9768 1 2 0 85.62467721368678 16.629462617782835 -2.2274421617370197 0 0 0
6956 1 1 0 81.66690423050972 17.18728757319815 -1.6440010242988192 0 0 0
13486 1 2 0 81.64267726188943 17.140566639851635 -2.0094016374135424e-07 0 0 0
9766 1 2 0 87.89879855315722 12.885226301371471 -2.202144320050003 0 0 0
6918 1 1 0 88.73315193240487 14.21689205978196 -1.6475989600181624 0 0 0
9771 1 2 0 90.28600888396106 14.17967925097915 -2.236670136713543 0 0 0
6919 1 1 0 87.16951843469064 16.90996474526938 -1.6477272341003035 0 0 0
9770 1 2 0 88.07245660015077 15.632742276685033 -2.20223827376342 0 0 0
6928 1 1 0 93.59733601161312 12.065016294622735 -1.643919720469146 0 0 0
9785 1 2 0 95.13226196707957 11.838408092871727 -2.1949950596331824 0 0 0
6927 1 1 0 96.57340083576514 12.424786553426618 -1.645897583898434 0 0 0
6930 1 1 0 91.7942590439814 14.503529361223562 -1.6445124707111558 0 0 0
9788 1 2 0 92.89497868165148 13.427389091447612 -2.2453082787403478 0 0 0
9786 1 2 0 96.67961528001233 13.969141659422867 -2.2215836140520935 0 0 0
6929 1 1 0 96.44294872124841 15.502904102076752 -1.6468176143994637 0 0 0
9791 1 2 0 92.32916468452368 15.981832292344768 -2.1598629912312135 0 0 0
6931 1 1 0 93.63724128556306 16.859063942714705 -1.6439550635821971 0 0 0
9789 1 2 0 95.05920407010082 16.2175108071903 -2.2264198240522663 0 0 0
13457 1 2 0 96.64104571674417 12.439245729824615 -2.1548761708067207e-07 0 0 0
13458 1 2 0 93.59295072252159 12.117343296869437 -3.2660116748864354e-07 0 0 0
13459 1 2 0 96.37884332494838 15.487374460066714 -4.6522085032284136e-07 0 0 0
6539 1 1 0 101.58573858382731 11.911774660236722 -1.6475012401528417 0 0 0
6540 1 1 0 101.53954743457386 14.829281771415328 -1.6376992871478013 0 0 0
9159 1 2 0 101.02294262674427 13.3651083229861 -2.1622585423952576 0 0 0
9790 1 2 0 97.74032328482754 16.339559598309744 -2.226791585413772 0 0 0
6939 1 1 0 99.22459322366444 16.763816715774258 -1.6439379380101642 0 0 0
9161 1 2 0 100.48340273350122 15.91118737916453 -2.2868584483427488 0 0 0
13070 1 2 0 101.51899663022748 14.977579554288985 -3.180552994640458e-07 0 0 0
13469 1 2 0 99.20336212625304 16.656631012731562 -1.6754363233387815e-07 0 0 0
9403 1 2 0 9.316749468417198 19.459354131893853 -2.198109249439421 0 0 0
6688 1 1 0 10.686815186591744 18.689404535580405 -1.6451871287293753 0 0 0
9405 1 2 0 11.925454133115576 19.68805063551103 -2.1685882601587094 0 0 0
6687 1 1 0 8.0003325453104 20.310792682719736 -1.647864630992711 0 0 0
6748 1 1 0 12.49167244781592 21.170125254750214 -1.6477762679377288 0 0 0
13217 1 2 0 8.026813778081166 20.344221784422356 -3.3684598561362285e-07 0 0 0
13278 1 2 0 12.469404341653531 21.19039870411274 -3.6203158514854946e-07 0 0 0
9494 1 2 0 11.619143489354643 22.46604097111086 -2.22744185873232 0 0 0
6727 1 1 0 7.961211840181423 23.439619797403527 -1.643073885275328 0 0 0
6963 1 1 0 17.180445772745696 18.713289590668847 -1.6462609339959822 0 0 0
9838 1 2 0 16.22756478764396 19.9783327669057 -2.178432974440601 0 0 0
9839 1 2 0 18.688257052689192 19.116197576931786 -2.224708719577978 0 0 0
9496 1 2 0 14.022448321792988 21.382358735039308 -2.227641251622238 0 0 0
6964 1 1 0 15.568995819936445 21.418447405189358 -1.6469187656183677 0 0 0
13493 1 2 0 17.141086155002462 18.65345938747089 -2.592542074080467e-07 0 0 0
9840 1 2 0 16.256959727271624 22.844791979118632 -2.205602669771736 0 0 0
9841 1 2 0 21.2824563292924 19.217712900647584 -2.1059760082949524 0 0 0
9635 1 2 0 23.573734776870182 18.052580648604607 -2.2399256646537933 0 0 0
6965 1 1 0 22.851580080475294 19.4175051041528 -1.6368962228391 0 0 0
6966 1 1 0 19.93456557729027 20.03188234262644 -1.6355738999292988 0 0 0
9843 1 2 0 20.096447372282125 21.566307178876624 -2.2474484785437987 0 0 0
9842 1 2 0 23.397286361515206 20.878313378124297 -2.223190681679785 0 0 0
6970 1 1 0 24.335481917297127 22.136517356630343 -1.6467805589577742 0 0 0
13500 1 2 0 24.28712776946405 22.15135315104567 -3.284591798990563e-08 0 0 0
7049 1 1 0 20.11949941757289 23.10931543810339 -1.6435896069516032 0 0 0
9636 1 2 0 27.51500774381354 17.797291195099138 -2.1947411584402383 0 0 0
6969 1 1 0 28.576350823383834 18.956906081164895 -1.6368316396598728 0 0 0
9652 1 2 0 30.089379210976286 18.379189414720468 -2.125615835439742 0 0 0
9848 1 2 0 25.842938637921883 21.75693157213317 -2.2040016856585756 0 0 0
9847 1 2 0 28.218951649166417 20.488640110059773 -2.231503874551545 0 0 0
6971 1 1 0 27.397636037166226 21.845602893904857 -1.6471262843112484 0 0 0
9850 1 2 0 27.858187024043183 23.362673474121134 -2.1759511734219865 0 0 0
9653 1 2 0 33.25674308270361 19.07906994024372 -2.2920506234899287 0 0 0
9912 1 2 0 32.32296896649787 21.934666563956956 -2.179373837908386 0 0 0
7012 1 1 0 33.08108399799529 20.57080398321546 -1.4995057231749906 0 0 0
9911 1 2 0 34.658530636204574 20.89540295756662 -1.3455065810176694 0 0 0
7052 1 1 0 31.84121727032658 23.47413259015918 -1.644173058809032 0 0 0
13582 1 2 0 31.898009301112733 23.39917786748511 -2.3196734186701464e-08 0 0 0
9858 1 2 0 36.99610010165901 19.67262459745118 -2.2486273147841676 0 0 0
6976 1 1 0 38.20636374303076 18.749176790130285 -1.5511681159300283 0 0 0
9857 1 2 0 39.62209060293394 19.56219102905693 -1.5796167363111147 0 0 0
6977 1 1 0 41.265088433003136 19.725392011563315 -1.5313496839333025 0 0 0
7013 1 1 0 36.260036907800895 20.985822168850095 -1.5037809012007424 0 0 0
7017 1 1 0 40.10585038976441 22.23874608342801 -1.5094369180296592 0 0 0
13506 1 2 0 37.712220624242654 18.38732782332607 -3.0787728638651413e-07 0 0 0
13543 1 2 0 36.98029207099648 21.054603866887717 -2.42763221142823e-07 0 0 0
9920 1 2 0 38.70343826731934 22.504403402931043 -2.352892206235033 0 0 0
9913 1 2 0 36.27553777990921 22.512162487014134 -2.156241814091049 0 0 0
7058 1 1 0 37.51852556837478 23.48226647364367 -1.6531742140818406 0 0 0
9859 1 2 0 41.325058235138385 21.28547856784232 -2.1848087350797525 0 0 0
9675 1 2 0 42.054380906153575 18.458081087172673 -2.2646896716461464 0 0 0
9917 1 2 0 44.48216694609269 21.70292292929733 -2.1632987536853143 0 0 0
7016 1 1 0 46.05811931503043 21.4951571244085 -1.6533811895833226 0 0 0
9815 1 2 0 46.60592634126231 20.080362134594438 -2.2691094863826144 0 0 0
7018 1 1 0 43.803379333390176 23.04684074883765 -1.4965153667426074 0 0 0
13548 1 2 0 43.1994748353909 22.618688740944528 9.383060764128643e-08 0 0 0
6947 1 1 0 47.68706905660278 19.008321449416407 -1.6421063702864975 0 0 0
9813 1 2 0 49.22885825189255 19.35196464782466 -2.1451108290867453 0 0 0
6946 1 1 0 50.57269672614987 18.503072063939264 -1.6420923823176607 0 0 0
9814 1 2 0 51.950097643455585 19.224200592586147 -2.245877269461444 0 0 0
13477 1 2 0 47.64815677184604 19.075829719753234 -5.3571795850545e-07 0 0 0
9918 1 2 0 46.983594452536195 22.66609538611657 -2.3333230145311012 0 0 0
6948 1 1 0 57.46181914564118 18.161681451378556 -1.6423993903363967 0 0 0
9817 1 2 0 57.22157291641313 19.71014888726378 -2.154225596129735 0 0 0
9864 1 2 0 52.606944629691824 21.84118319608847 -2.2544928431660662 0 0 0
6980 1 1 0 53.02323934651726 20.351920321890315 -1.648535633626388 0 0 0
9863 1 2 0 54.57697465644422 20.136701358044178 -2.2027215667961935 0 0 0
6981 1 1 0 56.025878158973775 20.729058120551933 -1.642007750211411 0 0 0
9865 1 2 0 56.46361452691136 22.23072129106038 -2.2093082333187652 0 0 0
13478 1 2 0 57.515867685295056 18.074614162179273 -5.353413713359297e-07 0 0 0
7022 1 1 0 52.79090071007057 23.354989862371067 -1.645659491397376 0 0 0
7027 1 1 0 57.72427281515947 23.162467647259838 -1.648683047962391 0 0 0
9818 1 2 0 61.289143756563796 18.924759429129466 -2.244543612155227 0 0 0
6985 1 1 0 62.22585870227402 20.132415164254358 -1.6456393702356367 0 0 0
9872 1 2 0 61.6182699209566 21.530223856402653 -2.258449692805348 0 0 0
13515 1 2 0 62.210995377294175 20.114440359848246 -6.742914849135546e-07 0 0 0
9935 1 2 0 59.1603387506944 22.556620342620857 -2.210011285668445 0 0 0
7028 1 1 0 60.69716421976092 22.742620241361507 -1.6430556762017543 0 0 0
13558 1 2 0 60.70245036352347 22.69947553862034 -2.455712149625005e-07 0 0 0
9871 1 2 0 63.77087492673836 19.977452728410057 -2.1997986901979916 0 0 0
9733 1 2 0 66.34456234909084 19.420618269779503 -2.2087187233683876 0 0 0
6896 1 1 0 66.9431736593009 17.97398265419721 -1.6473555904774873 0 0 0
9731 1 2 0 68.48230375589289 17.812291474398037 -2.2240936649839775 0 0 0
6986 1 1 0 65.23489151286624 20.520479675132275 -1.64552750371318 0 0 0
9873 1 2 0 65.53387432307453 22.055451849780226 -2.209259128725309 0 0 0
7029 1 1 0 65.45699038637231 23.625535929573047 -1.6473868205119584 0 0 0
13559 1 2 0 65.44476899600753 23.606327310399788 -4.157721206505825e-07 0 0 0
6895 1 1 0 70.03241963291562 17.764302923988577 -1.6469988485036362 0 0 0
9732 1 2 0 70.75688189121644 19.16867657376465 -2.1837855017202217 0 0 0
9824 1 2 0 73.2123038833755 20.105011478677458 -2.207791115336766 0 0 0
6953 1 1 0 74.64107450780872 19.466843569503816 -1.6466626761488676 0 0 0
6954 1 1 0 71.6760767604992 20.459408275087732 -1.6481370634892345 0 0 0
9826 1 2 0 71.1280595647349 21.962562342188612 -2.1888481319074624 0 0 0
13484 1 2 0 71.66648165511926 20.502236627699574 -4.3501475511443576e-07 0 0 0
13483 1 2 0 74.58291078279517 19.4513286817984 -2.734023917917612e-07 0 0 0
7030 1 1 0 70.85833202707545 23.546176688113015 -1.6454964417209452 0 0 0
13560 1 2 0 70.82970358508247 23.47414424868976 -3.0011104023394724e-07 0 0 0
9744 1 2 0 74.99475257817731 17.937594323482767 -2.21166089543292 0 0 0
9825 1 2 0 75.89467233842383 20.377831360242798 -2.21557876404802 0 0 0
6992 1 1 0 76.77033493305548 21.648761900987832 -1.6487742186091097 0 0 0
9880 1 2 0 78.31116814118538 21.47888062256081 -2.2658669786399206 0 0 0
6991 1 1 0 79.77206712687642 21.694845563304014 -1.5160490881351212 0 0 0
13521 1 2 0 79.6604643164132 21.035147458637148 -1.8084745098711133e-07 0 0 0
13522 1 2 0 76.8328046398642 21.66500010006889 -3.3101416377937387e-07 0 0 0
9882 1 2 0 75.97015795232939 22.995963354776414 -2.1822379077048706 0 0 0
9881 1 2 0 80.06205398335521 23.30209775808076 -1.450800971567901 0 0 0
9828 1 2 0 81.95219899085336 18.671450360732656 -2.2466641815541086 0 0 0
6990 1 1 0 82.31102341297984 20.139930662385588 -1.6491571901843889 0 0 0
9878 1 2 0 81.09162370382336 21.066378882635135 -2.290794882926978 0 0 0
9879 1 2 0 83.8295785407394 20.444421898744018 -2.224278085979696 0 0 0
7000 1 1 0 85.1289338310013 21.288833094851345 -1.644983309392969 0 0 0
9895 1 2 0 84.90410498264349 22.815919529792875 -2.220725037345251 0 0 0
9772 1 2 0 87.80711387027083 18.35800795617394 -2.188350132652654 0 0 0
6999 1 1 0 87.92278943170929 19.94611775443821 -1.6489572928096452 0 0 0
9893 1 2 0 86.563956737933 20.713137472337976 -2.2319223379188373 0 0 0
9894 1 2 0 89.27438934746516 20.785191798511278 -2.188016793862877 0 0 0
7003 1 1 0 90.65137264588269 21.590492234096086 -1.6476221245106168 0 0 0
9899 1 2 0 90.78935895003168 23.186195617569872 -2.164510362702171 0 0 0
9792 1 2 0 93.34143139547658 18.376300587709004 -2.22933223955827 0 0 0
7002 1 1 0 93.30605337682458 19.927063992779104 -1.6491763108381126 0 0 0
9897 1 2 0 91.97617783446893 20.745516496810765 -2.2126631646920587 0 0 0
9898 1 2 0 94.68884641332222 20.63301675811007 -2.248521681998232 0 0 0
7005 1 1 0 96.20747116765371 20.843459614935906 -1.6400714334739237 0 0 0
9901 1 2 0 96.88087964047718 22.25152619187456 -2.157501892919748 0 0 0
9900 1 2 0 97.32608196313988 19.75932609641494 -2.2143682659753043 0 0 0
9803 1 2 0 99.52360698936259 18.28589490329164 -2.180759157346784 0 0 0