LAMMPS data file via write_data, version 2 Aug 2023, timestep = 160, units = metal

15612 atoms
2 atom types

7.575232425824307 197.8501061558632 xlo xhi
5.9354061247054375 170.92545934152702 ylo yhi
-100 100 zlo zhi

Masses

1 28.085
2 15.999

Atoms # full

6625 1 1 0 12.594555251965419 6.589468252382076 -1.6485748797800774 0 0 0
9311 1 2 0 12.813685153804519 8.132656040277146 -2.175248744433224 0 0 0
6621 1 1 0 9.248919180089745 10.136492521637404 -1.6479802425301748 0 0 0
9302 1 2 0 8.050486071867248 9.214200262536728 -2.2685640702856307 0 0 0
9307 1 2 0 10.622765174226995 9.487177960682295 -2.2525232284706447 0 0 0
6624 1 1 0 12.137749440886688 9.528159783640799 -1.6403112107170799 0 0 0
13126 1 2 0 9.183624525609176 10.152997943354285 -2.138393854737787e-07 0 0 0
9312 1 2 0 12.956945907137236 10.82553777774656 -2.239934383767698 0 0 0
13129 1 2 0 12.111671282767563 9.597845571443257 2.3099111920135401e-07 0 0 0
9306 1 2 0 9.212475175331829 11.651940519021203 -2.281209466470718 0 0 0
9599 1 2 0 16.665883527527498 6.124637626638715 -2.274326347146318 0 0 0
6814 1 1 0 17.735099682906164 7.211392863555848 -1.6469527323758943 0 0 0
9348 1 2 0 15.574423322512734 10.505741767280815 -2.2637631408745573 0 0 0
6813 1 1 0 17.04237826233592 10.147259697179292 -1.6442347959087324 0 0 0
9597 1 2 0 17.31784352046722 8.66472230378745 -2.2597252479403527 0 0 0
6646 1 1 0 14.375822361591544 11.430733619403329 -1.6532320336760857 0 0 0
9598 1 2 0 18.152041187923448 11.18914076437923 -2.254916181373686 0 0 0
13318 1 2 0 17.073707386300512 10.14628814453734 2.9024953059314835e-09 0 0 0
13151 1 2 0 14.372576708485175 11.422878544622447 -2.661222285396834e-07 0 0 0
9600 1 2 0 19.210860075447137 6.892306321128242 -2.2783775264501305 0 0 0
6821 1 1 0 20.706505905368836 7.160890663769229 -1.6441997561256532 0 0 0
9608 1 2 0 21.41432244141795 8.517719620516804 -2.251389897652363 0 0 0
6820 1 1 0 21.869176556872564 9.98953281816745 -1.6463520626378711 0 0 0
9609 1 2 0 23.35735954813438 10.34376823804635 -2.2428697902499692 0 0 0
9603 1 2 0 20.842524076269758 11.150664374442949 -2.2129137774854266 0 0 0
9613 1 2 0 26.491610040078076 7.181014517982053 -2.1511714233905104 0 0 0
9611 1 2 0 25.935819182797026 9.81943184632455 -2.226250885716082 0 0 0
6822 1 1 0 27.01666021593173 8.704112074342474 -1.6462968563543954 0 0 0
9612 1 2 0 28.50993146253886 9.288821058096074 -2.1981467157339227 0 0 0
6824 1 1 0 29.759888802028833 10.172114586770578 -1.4999251686352904 0 0 0
6823 1 1 0 24.802856073634196 10.873867514472158 -1.6482135835485607 0 0 0
13329 1 2 0 29.20810735086195 10.635337230715812 -9.20525311147129e-08 0 0 0
9635 1 2 0 30.73368991547566 6.846879869500883 -2.3245023671256004 0 0 0
6835 1 1 0 31.83928436048356 7.802998447768787 -1.5042747192365884 0 0 0
9634 1 2 0 33.300844294094446 8.144225914331921 -2.2407581525268174 0 0 0
9616 1 2 0 31.11903908357818 9.263643656983577 -1.3600803584853103 0 0 0
6836 1 1 0 34.64726934786263 8.951383291071568 -1.651321735380598 0 0 0
9636 1 2 0 34.931645965658696 10.493614850675906 -2.199907054235082 0 0 0
13340 1 2 0 32.14763548870974 7.137497194153843 -4.957708769180194e-07 0 0 0
9615 1 2 0 30.426162550908273 11.515354696034157 -2.2599208605665315 0 0 0
9637 1 2 0 35.953700108514056 8.137016340631323 -2.2416615583164377 0 0 0
6841 1 1 0 37.35725732998578 7.526406449039077 -1.6433475744397648 0 0 0
9643 1 2 0 38.68295419020947 8.293165796239347 -2.244762991127997 0 0 0
6842 1 1 0 40.08690960424563 8.926464032567335 -1.6474412519239006 0 0 0
9645 1 2 0 40.064950660992686 10.48824115879392 -2.206468419625183 0 0 0
13346 1 2 0 37.36308305331385 7.59544904570452 -1.5681607332943755e-08 0 0 0
9644 1 2 0 37.442703018866226 5.993472433220556 -2.2116866150229426 0 0 0
13347 1 2 0 40.12431301386128 8.918274654952741 -5.6305297456076704e-08 0 0 0
9646 1 2 0 41.3588913000847 7.99481198854657 -2.2018998826674 0 0 0
6849 1 1 0 42.596732876161376 7.021963703906655 -1.6464122048923842 0 0 0
9656 1 2 0 44.03427635217375 7.603797274031702 -2.221357512485429 0 0 0
6851 1 1 0 45.39972665263209 8.335750879110375 -1.6463381420106347 0 0 0
9661 1 2 0 46.74054566879649 7.5368443726894245 -2.2244993082517577 0 0 0
9658 1 2 0 45.324964127917575 9.891169544732678 -2.204159442377634 0 0 0
6850 1 1 0 45.607095969594404 11.427420007940993 -1.6465881877181925 0 0 0
13356 1 2 0 45.431078078689424 8.31600956031638 -3.1684030080139317e-07 0 0 0
6862 1 1 0 48.00345611838403 6.624214677773258 -1.646896442597124 0 0 0
9677 1 2 0 49.437367482240234 7.226658755125079 -2.2181996250435763 0 0 0
6861 1 1 0 50.94845899638468 7.604933515582507 -1.6463670400740413 0 0 0
9678 1 2 0 52.1055087316049 6.5427738359648195 -2.1976122987459297 0 0 0
6855 1 1 0 51.39485759570266 10.674414263430421 -1.6482357990554293 0 0 0
9668 1 2 0 51.31278742524538 9.115389315550487 -2.212192507563242 0 0 0
13367 1 2 0 47.98918263569924 6.634849421102259 -2.6479722254889844e-07 0 0 0
9666 1 2 0 50.01965318345623 11.482344096028474 -2.1913412594559287 0 0 0
9660 1 2 0 47.153187411211285 11.75474782020697 -2.1957932223623593 0 0 0
9682 1 2 0 56.69711815893076 6.495292574513968 -2.2103192907181697 0 0 0
6864 1 1 0 57.82060220376536 7.571290073380722 -1.6470203935898466 0 0 0
9680 1 2 0 57.46262461335195 9.060273055913179 -2.2347952216058364 0 0 0
9667 1 2 0 52.879082106254764 11.239838855123029 -2.201050599611084 0 0 0
9671 1 2 0 55.74648559398139 10.93009384442571 -2.193170302520558 0 0 0
6863 1 1 0 57.28612384379587 10.589549631398713 -1.6469876343058834 0 0 0
13369 1 2 0 57.82266892090845 7.551930357500791 -2.7272896867348087e-07 0 0 0
6857 1 1 0 54.38779507616986 11.72244052353912 -1.644335978860794 0 0 0
13362 1 2 0 54.32974939896301 11.63165389334337 -1.035785149103136e-07 0 0 0
9683 1 2 0 59.31358086537536 7.215087731500796 -2.258368116959937 0 0 0
6870 1 1 0 60.838189772983846 7.116012956839096 -1.6422819439331326 0 0 0
9693 1 2 0 61.79802018518322 8.332983679267084 -2.218208599562049 0 0 0
6873 1 1 0 63.24107448325982 8.93196304616264 -1.6479901507380619 0 0 0
9697 1 2 0 63.45558115619338 10.47258631867486 -2.199990551868407 0 0 0
9681 1 2 0 58.60271550790646 11.47663340927805 -2.1973505111794864 0 0 0
9698 1 2 0 64.48116404852875 8.035568504173654 -2.270091811532128 0 0 0
6875 1 1 0 65.66971457760974 7.083776852792916 -1.6460982985122712 0 0 0
9701 1 2 0 67.17754989249529 7.441941629956176 -2.228282442469813 0 0 0
6878 1 1 0 68.09910257800688 8.666537948312437 -1.6343410672722174 0 0 0
9705 1 2 0 67.15590188805061 10.001460009512252 -1.969122590795772 0 0 0
13380 1 2 0 65.61912858954102 7.175435939983847 -4.796403598019919e-08 0 0 0
13383 1 2 0 68.27820161485573 8.559986425199803 -9.466682229040085e-07 0 0 0
6879 1 1 0 67.83833325748755 11.475943235580663 -1.6143655940412687 0 0 0
13384 1 2 0 67.97679888023636 11.80451622405471 -1.48841968413262e-06 0 0 0
9706 1 2 0 69.63762741562995 8.540478425825121 -2.272784948574285 0 0 0
6882 1 1 0 70.83188261996025 7.579312618420926 -1.6342035983391279 0 0 0
9712 1 2 0 72.37957324364247 7.899844217313827 -2.1598870422828322 0 0 0
9716 1 2 0 72.24952321358882 10.477495924932915 -2.206914564985127 0 0 0
6885 1 1 0 73.24183191541786 9.24232302082543 -1.641961081874841 0 0 0
6886 1 1 0 70.89183630652063 11.275808988379797 -1.6331211863590813 0 0 0
9708 1 2 0 69.34737785852872 11.164259595677544 -2.2486373837998186 0 0 0
13387 1 2 0 70.86486311058488 7.765832144024285 -2.41654494431681e-06 0 0 0
9711 1 2 0 70.44822491421321 6.04084584760593 -2.0707107950661383 0 0 0
9720 1 2 0 75.21396044561294 6.552500517206263 -2.1854619341038903 0 1 0
6887 1 1 0 75.96273260912415 7.937227854654176 -1.6459292594706023 0 0 0
9719 1 2 0 77.58710330182969 7.9856845968298895 -2.167240099500692 0 0 0
6889 1 1 0 79.2014980306427 8.241276142763606 -1.648482132121145 0 0 0
9717 1 2 0 74.83868980170426 9.11496798373181 -2.1674826998991326 0 0 0
9721 1 2 0 79.60877353695541 9.754433393842014 -2.2325087046346934 0 0 0
6888 1 1 0 79.80630232898149 11.288553842609788 -1.654642635170626 0 0 0
13394 1 2 0 79.16155226537686 8.195773554045077 -3.6325323553219923e-07 0 0 0
13393 1 2 0 79.80144495607925 11.244287367276947 -3.859396718156297e-08 0 0 0
9724 1 2 0 80.49243567850924 7.2282088609607165 -2.1266827837125106 0 0 0
6899 1 1 0 82.01211507078715 6.590006763627423 -1.6482834067541865 0 0 0
9733 1 2 0 83.3111338363341 7.649190980543652 -2.132514898841984 0 0 0
6894 1 1 0 84.67593402015432 8.598322396548227 -1.6413680492168825 0 0 0
9732 1 2 0 85.01418707462356 10.215313891818745 -2.153759903522788 0 0 0
13399 1 2 0 84.53679492758485 8.691533620850896 -1.3446046836292317e-06 0 0 0
13404 1 2 0 82.06959836033488 6.600472349186423 -1.3631198924338957e-06 0 0 0
6896 1 1 0 85.727979069985 11.676232723392861 -1.6422619681626338 0 0 0
13401 1 2 0 85.77173606807804 11.581435138919607 -1.4085939895403316e-07 0 0 0
9731 1 2 0 86.04125465427431 7.772911311987658 -2.1435744070945297 0 0 0
6895 1 1 0 87.61807773433388 7.554023444395093 -1.6453969772947776 0 0 0
9735 1 2 0 88.02493852384426 6.018588955950321 -2.1848777396430634 0 0 0
9734 1 2 0 88.58614449428879 8.819184986569704 -2.2154785408578483 0 0 0
6897 1 1 0 89.67755034282143 9.967248181132788 -1.642725274195752 0 0 0
9739 1 2 0 91.17764277905789 9.556362379759852 -2.2039365383523366 0 0 0
13400 1 2 0 87.71234220862112 7.573533404683896 -9.801161553021354e-07 0 0 0
9738 1 2 0 89.66355976201567 11.579409690153772 -2.1137333205983118 0 0 0
9757 1 2 0 92.7510113887725 5.982695993881355 -2.222051516416115 0 0 0
6909 1 1 0 93.84048087198117 7.104894133153844 -1.6460764554903229 0 0 0
9758 1 2 0 95.3720120085557 6.824314714400395 -2.2191207759490847 0 0 0
6913 1 1 0 96.87846829024838 7.197619748732102 -1.6451333008187714 0 0 0
6908 1 1 0 92.6910373001756 9.926203550196332 -1.64521139313818 0 0 0
9755 1 2 0 93.56118354076857 8.636940943384174 -2.196772947803922 0 0 0
9756 1 2 0 93.34600224082133 11.340749427750243 -2.228867240805741 0 0 0
13414 1 2 0 93.79662142601624 7.046500164307662 -2.6666623403906324e-07 0 0 0
9761 1 2 0 97.5546391749872 8.591260194298343 -2.2244056412520377 0 0 0
6911 1 1 0 98.73077584263667 9.60805494844484 -1.647408759229735 0 0 0
6632 1 1 0 101.79831160920651 9.282784006474504 -1.6467523901578391 0 0 0
9326 1 2 0 100.24450164544072 9.25359048575111 -2.2287871974732614 0 0 0
9760 1 2 0 98.31142138107484 11.096836040029354 -2.2183622225727233 0 0 0
9317 1 2 0 102.56112388971995 10.639222636637438 -2.2036497458002917 0 0 0
9763 1 2 0 97.87832944907265 6.02645647847666 -2.216127702198741 0 1 0
13416 1 2 0 98.76398999911312 9.570749966375317 -1.4591881816380458e-07 0 0 0
9325 1 2 0 102.65524651124701 7.98852439643749 -2.225937166018055 0 0 0
6622 1 1 0 8.775048738830609 13.089828794086294 -1.6377329367603635 0 0 0
6645 1 1 0 11.046392219107457 14.920562242958788 -1.6157978236479476 0 0 0
9309 1 2 0 9.68458657159729 14.302435205002329 -2.2986450786095327 0 0 0
9345 1 2 0 12.273832047084454 13.858680345716323 -1.9090767688309789 0 0 0
9346 1 2 0 11.498262451348415 16.333647216856587 -2.339078058871262 0 0 0
13127 1 2 0 8.939561917026726 13.069860788176458 -6.741623797307762e-08 0 0 0
13178 1 2 0 11.81287609406235 17.678862416405224 -1.2926260232909988e-07 0 0 0
9347 1 2 0 14.679118546209857 12.940412493541913 -2.2507721304690245 0 0 0
6647 1 1 0 13.85907339681898 14.215382684559973 -1.613502789843025 0 0 0
9349 1 2 0 14.326161583845108 15.631105001947901 -2.311333953498077 0 0 0
6818 1 1 0 15.332915462850917 16.756412697008667 -1.6422687499982154 0 0 0
9606 1 2 0 16.837438119027553 16.330707654222504 -2.14984106512168 0 0 0
13323 1 2 0 15.224617969053648 16.811887593362428 2.387713777402931e-07 0 0 0
6819 1 1 0 18.212653948523126 17.07372621724921 -1.6405194086492259 0 0 0
6816 1 1 0 19.49339712597393 11.9127031025422 -1.648373047664232 0 0 0
6817 1 1 0 20.10669407530032 14.79923851989753 -1.6390220710272558 0 0 0
9602 1 2 0 19.4076943626902 13.444197600720859 -2.256150684152111 0 0 0
9605 1 2 0 21.683467507274404 14.740364055913098 -2.096143231612192 0 0 0
9620 1 2 0 24.226011532009 15.080972794252318 -2.2505900950605136 0 0 0
9604 1 2 0 19.44807347844281 16.178488185866428 -2.272930083024902 0 0 0
6918 1 1 0 22.868457727731425 15.79272781878252 -1.6350661745164463 0 0 0
13322 1 2 0 19.963825309808627 14.810164974476708 -1.5077097152345283e-07 0 0 0
9769 1 2 0 22.495186571988164 17.28859019686869 -2.247225551095665 0 0 0
9614 1 2 0 25.041851785357096 12.40687635302749 -2.239039309331262 0 0 0
6826 1 1 0 25.269040600942393 13.934328315898432 -1.646740319254762 0 0 0
9619 1 2 0 26.75501276839689 14.421913051955434 -2.1839254766542093 0 0 0
9621 1 2 0 29.119992985864087 15.60576978119393 -2.272064785922778 0 0 0
6828 1 1 0 27.61010466093865 15.723865215829084 -1.644391067231449 0 0 0
13331 1 2 0 25.173372496604802 13.894084260359913 -5.20235133148337e-07 0 0 0
9623 1 2 0 26.93216694452316 17.124064553729337 -2.2024463885316496 0 0 0
6825 1 1 0 31.637186677762617 12.519196602236107 -1.6536102418022736 0 0 0
9618 1 2 0 33.218738599875344 12.418152796329695 -2.1845580103268003 0 0 0
6837 1 1 0 34.75575341832372 12.050880776613287 -1.644738979849192 0 0 0
6827 1 1 0 30.626638642571198 15.396061661667684 -1.6461122143207036 0 0 0
9617 1 2 0 31.212413255560673 13.995689242001063 -2.2441929424568747 0 0 0
9622 1 2 0 31.591282397748245 16.598001093953847 -2.2241036287198503 0 0 0
13332 1 2 0 30.6027284352274 15.409687498152966 -5.941737984382009e-07 0 0 0
13330 1 2 0 31.637336822918346 12.419687719703566 6.476071518231368e-07 0 0 0
9638 1 2 0 36.01089333231283 13.048777897774404 -2.1812154222750264 0 0 0
6843 1 1 0 40.089970322408185 12.055199412475787 -1.6460183752162123 0 0 0
9647 1 2 0 38.77765082460353 12.967129531460202 -2.1762083599861506 0 0 0
6844 1 1 0 37.423656870707376 13.828042720603374 -1.6508064516198149 0 0 0
9649 1 2 0 37.53968628670844 15.438553675918135 -2.182736350611236 0 0 0
13349 1 2 0 37.40127217162954 13.836561396557292 -1.7365101706847132e-07 0 0 0
6922 1 1 0 37.36481329880596 17.033904167379326 -1.638893785280215 0 0 0
9775 1 2 0 35.87865954021812 17.544886710934176 -2.167112436537031 0 0 0
9648 1 2 0 41.55937458751839 12.598443150751478 -2.2033823439042117 0 0 0
6852 1 1 0 42.98911453283573 13.240236066311448 -1.649115080511646 0 0 0
9659 1 2 0 44.36018293862202 12.420911165678028 -2.1916749288472945 0 0 0
9662 1 2 0 42.856772640284184 14.806699351024571 -2.208514619834268 0 0 0
6928 1 1 0 43.45992150705472 16.242481853523486 -1.6402015608710552 0 0 0
9786 1 2 0 45.035974087684345 16.112382982232294 -2.1326177578812744 0 0 0
6936 1 1 0 46.29828013149553 17.041339162837254 -1.6358715989379622 0 0 0
9785 1 2 0 42.7261349625691 17.620579179020957 -2.233278535596546 0 0 0
6856 1 1 0 48.64190659404092 12.278569493549524 -1.6444606885280946 0 0 0
6859 1 1 0 48.845333591475786 15.371863378536212 -1.6505121903547566 0 0 0
9669 1 2 0 48.69173881058048 13.82951369076173 -2.2080191560342106 0 0 0
9675 1 2 0 47.673640409535615 16.37217172910343 -2.2673353610236586 0 0 0
9674 1 2 0 50.270211596998905 15.917269984403887 -2.284055351418705 0 0 0
6860 1 1 0 51.77263045423718 16.05661112416082 -1.6369527366962262 0 0 0
13365 1 2 0 51.633728120570694 15.9657418273619 -3.5442623408163923e-07 0 0 0
9672 1 2 0 52.799710375556415 14.907874158323784 -2.2086145329589866 0 0 0
6858 1 1 0 54.34852142818302 14.721163165441055 -1.6468254154235122 0 0 0
9670 1 2 0 54.74099962137023 13.232883860219774 -2.208451444975324 0 0 0
9673 1 2 0 55.415942553875155 15.822890573599645 -2.254679898392052 0 0 0
6868 1 1 0 56.665473223911 16.72610143454297 -1.645965240727007 0 0 0
9676 1 2 0 52.48991152065155 17.463983989765513 -2.1182138658069283 0 0 0
9689 1 2 0 58.094082517056165 16.145760137196806 -2.234580096345008 0 0 0
6867 1 1 0 59.855366369364106 12.44688088756697 -1.6466138608517298 0 0 0
9688 1 2 0 61.404465609572654 12.137212671144848 -2.2011756376118847 0 0 0
6874 1 1 0 62.97264489473719 11.958780699737177 -1.6452749984131054 0 0 0
9687 1 2 0 59.526104839447086 13.952328685969682 -2.236003687420009 0 0 0
6869 1 1 0 59.491024447170105 15.489299065904044 -1.653114479845445 0 0 0
9691 1 2 0 60.82824811838057 16.30620464442666 -2.236648816488117 0 0 0
13372 1 2 0 59.87172434461099 12.370681931113516 -6.027748321568312e-07 0 0 0
13374 1 2 0 59.490944109167266 15.48529176786256 2.7174280465847e-08 0 0 0
9699 1 2 0 64.12746005154493 13.057384457350754 -2.1811297931921163 0 0 0
9707 1 2 0 66.86096600283447 12.654758053453158 -2.2500225000757457 0 0 0
6880 1 1 0 65.6243794856948 13.61689436080531 -1.652288162614851 0 0 0
9709 1 2 0 65.96056462597882 15.156862871574583 -2.2120582352776355 0 0 0
6938 1 1 0 66.27264308782144 16.693956251213653 -1.6438928181651662 0 0 0
13443 1 2 0 66.31315630706045 16.63631888042116 -1.228711566715001e-07 0 0 0
9802 1 2 0 65.07676015488057 17.674661519354846 -2.2112809766986734 0 0 0
9801 1 2 0 67.66348691525312 17.413454091614216 -2.211733944571698 0 0 0
9718 1 2 0 71.0758542268825 12.825961757955296 -2.1299216296920016 0 0 0
9726 1 2 0 71.48367814126398 15.316672729098315 -2.279403405948849 0 0 0
6890 1 1 0 72.12532266119287 13.944049499438531 -1.6328761069374071 0 0 0
9725 1 2 0 73.58966221033769 13.37527373560676 -2.1697176123227226 0 0 0
6937 1 1 0 71.459582447491 16.838352739098276 -1.6367793025436081 0 0 0
13448 1 2 0 74.3812798754314 16.830324601958033 -4.187411235906787e-07 0 0 0
13442 1 2 0 71.28023165909181 16.80542967853743 -6.926204329498798e-08 0 0 0
9800 1 2 0 72.89335183407448 17.49175012736652 -2.1169076519159096 0 0 0
6943 1 1 0 74.3847918234041 16.965753926372596 -1.6365015817236621 0 0 0
9722 1 2 0 78.60261637527624 12.265570245671285 -2.2315564612891934 0 0 0
6891 1 1 0 74.98164416179372 14.08210675013071 -1.6436404716083874 0 0 0
9727 1 2 0 76.29693639886852 13.316203700224788 -2.2425536408756908 0 0 0
6892 1 1 0 77.82214711900644 13.608912085527647 -1.6586797210657187 0 0 0
9729 1 2 0 78.2464461671639 15.139895097330188 -2.244764839047461 0 0 0
9728 1 2 0 74.94293533996384 15.589010623878393 -2.3103499745803084 0 0 0
6946 1 1 0 79.58700190479348 15.810969716280878 -1.4980187647021534 0 0 0
13397 1 2 0 77.86972749035952 13.61995785766514 -1.0396867362073004e-07 0 0 0
13451 1 2 0 79.16373109095599 16.38501222395679 -5.734085277738773e-07 0 0 0
9723 1 2 0 81.23443248355633 11.968337687703361 -2.216180548479934 0 0 0
9750 1 2 0 80.452720382706 14.419801774028167 -1.319546651214066 0 0 0
6904 1 1 0 81.70536715435917 13.38918823372997 -1.4857577396590564 0 0 0
9749 1 2 0 82.80249018538278 14.359280356355557 -2.237783367480704 0 0 0
6905 1 1 0 84.35161773846119 14.452198567354046 -1.641247828328741 0 0 0
9737 1 2 0 84.88713598694122 12.992892465627108 -2.2118824774742896 0 0 0
9751 1 2 0 84.94171661641212 15.91274896392475 -2.208613741092669 0 0 0
13410 1 2 0 84.56982611697437 14.518558189521091 -7.52606084169316e-07 0 0 0
9813 1 2 0 80.4010648965052 17.044698135294652 -2.2592192661805983 0 0 0
6948 1 1 0 84.53828979821687 17.447097046583757 -1.6501954307750866 0 0 0
13453 1 2 0 84.55224026395913 17.474088339612905 -9.536419735355136e-07 0 0 0
9736 1 2 0 87.24154083475818 12.19264498230065 -2.1724143350341256 0 0 0
6898 1 1 0 88.69343387962827 12.85109696591883 -1.635902142946364 0 0 0
9740 1 2 0 89.31157141081597 14.356538565112256 -2.1791687376109925 0 0 0
6951 1 1 0 90.22231507506095 15.714500298114226 -1.6477229423440165 0 0 0
13403 1 2 0 88.60481499611194 13.039941403406704 -4.163865557548607e-07 0 0 0
9820 1 2 0 89.77347611678726 17.26859123833765 -2.157576947616832 0 0 0
6916 1 1 0 94.34406698619048 12.542207329670621 -1.6482618508548548 0 0 0
9762 1 2 0 95.86798773453583 12.249499595843224 -2.227084437788896 0 0 0
9767 1 2 0 93.90614613579598 14.037462931340121 -2.214874984406701 0 0 0
9818 1 2 0 91.79867251931303 15.607796133090355 -2.185997701335766 0 0 0
6950 1 1 0 93.36842309172842 15.502874753898455 -1.6465707514797463 0 0 0
9819 1 2 0 94.3408537338028 16.753779754096264 -2.204866956425199 0 0 0
9394 1 2 0 96.98038747706828 17.48877485984168 -2.2226845864906397 0 0 0
6912 1 1 0 97.40919721468526 12.352669084238956 -1.646713350346589 0 0 0
6675 1 1 0 99.37607693797412 14.61757970429176 -1.6446034695972733 0 0 0
9393 1 2 0 98.11287155446344 13.731377465831164 -2.2315500061143974 0 0 0
9323 1 2 0 100.79919815189537 13.944162616448441 -2.15876554469057 0 0 0
9392 1 2 0 99.27368032519506 16.16292574915182 -2.2224182123885314 0 0 0
6630 1 1 0 102.32728115288748 14.341881311493388 -1.643647376809862 0 0 0
13135 1 2 0 102.42044457906384 14.37245781725137 -1.44017675510074e-07 0 0 0
9320 1 2 0 102.64168899302966 15.858248235775289 -2.231812859592752 0 0 0
6676 1 1 0 98.53220372425841 17.527491903097403 -1.646857434052204 0 0 0
13181 1 2 0 98.5029963163416 17.55170048148654 -1.9174338166021105e-07 0 0 0
6672 1 1 0 8.71213890372601 19.355429906426718 -1.590590491982769 0 0 0
6673 1 1 0 11.405228098735403 17.801581528428354 -1.5939990972948077 0 0 0
9387 1 2 0 9.86174997329118 18.22802089273596 -1.8468876104685454 0 0 0
9389 1 2 0 12.416280758221584 18.91237641359559 -2.2589766258823682 0 0 0
9388 1 2 0 9.210577330306942 20.755372955520816 -2.295650482433929 0 0 0
6714 1 1 0 9.394320006928805 22.27174753169066 -1.649633805291925 0 0 0
13177 1 2 0 8.414759098687284 19.691171417678973 -1.1602239469221635e-06 0 0 0
13219 1 2 0 9.434216495299848 22.306809891122274 -2.343419260050636e-07 0 0 0
9451 1 2 0 8.063814833929442 23.0589789773916 -2.2122313278259256 0 0 0
9452 1 2 0 10.799520614987005 22.926527581209797 -2.2303340933118565 0 0 0
6733 1 1 0 13.89315138736644 19.34546441664539 -1.6465325855156738 0 0 0
9481 1 2 0 14.994096834125187 18.259183481418678 -2.2246916464331727 0 0 0
9480 1 2 0 14.221274693680117 20.807870849674476 -2.291312225652673 0 0 0
6734 1 1 0 14.618762359116875 22.271587336146165 -1.6477861373319966 0 0 0
9607 1 2 0 18.173293778367295 18.63437081551108 -2.1813862878292882 0 0 0
9833 1 2 0 18.56034075348504 21.282702916051136 -2.2410466195504126 0 0 0
13239 1 2 0 14.62545687291126 22.283214611589717 -1.1539167151213236e-07 0 0 0
9478 1 2 0 13.499405370543208 23.3528545106112 -2.2150022931974296 0 0 0
9482 1 2 0 16.13160393580997 22.588491428311762 -2.2195888317978882 0 0 0
7026 1 1 0 17.68328037384148 22.571025351230844 -1.6477094764415063 0 0 0
13531 1 2 0 17.70835130104995 22.525549346246972 -5.67298201347248e-07 0 0 0
9831 1 2 0 20.65008848498985 19.43335587633797 -2.2294512945570903 0 0 0
6960 1 1 0 19.15879579558782 19.855811284092283 -1.6424076198226665 0 0 0
6959 1 1 0 22.050975387456514 18.774709510701104 -1.6452534081222285 0 0 0
9832 1 2 0 23.161252899165856 19.837397344860328 -2.212506570329031 0 0 0
13464 1 2 0 21.98317721365381 18.68657394436419 -5.633391710157083e-07 0 0 0
9773 1 2 0 25.77113774109531 19.46920264782821 -2.277752450281218 0 0 0
6920 1 1 0 27.055320430368102 18.672160547164495 -1.6466533559129506 0 0 0
9772 1 2 0 28.39575547564091 19.412689681881474 -2.248017209678244 0 0 0
6961 1 1 0 24.583350376484304 20.407503634193024 -1.6448550942312472 0 0 0
9834 1 2 0 24.73900234965994 21.918205332127624 -2.253138763267026 0 0 0
6921 1 1 0 29.759706341207774 20.10361438886967 -1.6454545549402195 0 0 0
13425 1 2 0 27.067484881188612 18.70281106995959 -6.011589451138563e-08 0 0 0
9774 1 2 0 29.93314052925758 21.6181684096007 -2.2513681133516923 0 0 0
13466 1 2 0 24.64083112201657 20.404087438274345 -3.7496570829775826e-07 0 0 0
7030 1 1 0 24.556037584054476 23.434996956969723 -1.6487366923836555 0 0 0
13535 1 2 0 24.571323593871444 23.474568431429713 -7.961096031107816e-07 0 0 0
6919 1 1 0 32.017564043036906 18.076462364127572 -1.6460860085175724 0 0 0
9770 1 2 0 31.020560307194227 19.238836545529534 -2.234394154064604 0 0 0
9771 1 2 0 33.480076712219656 18.43869792692845 -2.2822947263878626 0 0 0
6923 1 1 0 34.945635039636635 18.806579220589096 -1.6471620119874268 0 0 0
9777 1 2 0 35.38067590398739 20.304118443731795 -2.226585283203035 0 0 0
6987 1 1 0 35.26329235416621 21.857272700095354 -1.6455466386993907 0 0 0
13492 1 2 0 35.22919807082172 21.814755562776483 -3.713576296741191e-08 0 0 0
6988 1 1 0 30.028042149263023 23.14920605325343 -1.6479551600609124 0 0 0
9872 1 2 0 33.896198675187364 22.607746960163155 -2.216412787715434 0 0 0
9776 1 2 0 38.329261983632755 18.306717524706407 -2.1751674584747858 0 0 0
6929 1 1 0 39.148045483525905 19.680730018193717 -1.6448116957105987 0 0 0
9787 1 2 0 40.65720017456871 19.335819141548402 -2.2106011719222263 0 0 0
9788 1 2 0 38.78244931540247 21.253055520042246 -2.168963419386766 0 0 0
9873 1 2 0 36.57531607496811 22.734318613795228 -2.153951553082993 0 0 0
6996 1 1 0 38.157834024813425 22.745677970953174 -1.6410129083453742 0 0 0
6930 1 1 0 42.18142701031642 19.090546609179217 -1.6470663222309228 0 0 0
9798 1 2 0 45.87823376319847 18.553534399732047 -2.1672743827459655 0 0 0
6999 1 1 0 46.3965410713058 20.042212796541463 -1.6471229397421594 0 0 0
9789 1 2 0 42.98512753830203 20.42459884344128 -2.2269393252676215 0 0 0
7000 1 1 0 43.91598843443225 21.665624186053442 -1.6458800553845485 0 0 0
9891 1 2 0 45.450189680867105 21.28911581829145 -2.19036338720067 0 0 0
13505 1 2 0 43.85967181357724 21.671775815965653 -2.7555350339202803e-07 0 0 0
13435 1 2 0 42.26213711622615 19.06468480324363 -2.0214564144348394e-07 0 0 0
9893 1 2 0 43.43602189756585 23.17948491131779 -2.1732082700555932 0 0 0
9892 1 2 0 47.885604937566676 20.144883470934595 -2.341796306944744 0 0 0
9845 1 2 0 50.363520551612446 19.00645663631969 -2.209672873221324 0 0 0
6968 1 1 0 51.92664503695892 18.930710136876097 -1.6423025462047358 0 0 0
7001 1 1 0 49.35953918793068 20.177218529812436 -1.6298171921919358 0 0 0
9894 1 2 0 50.079258894474734 21.589427821446897 -2.0756963839389253 0 0 0
13473 1 2 0 51.91832673119657 19.074303839503603 -7.582655285449862e-07 0 0 0
13506 1 2 0 49.16886215792568 20.032947629250163 -3.638531041068337e-07 0 0 0
9965 1 2 0 47.84143692904898 23.09292369028399 -2.070600442079533 0 0 0
7047 1 1 0 49.47233893431946 23.048163007421692 -1.6286531908385755 0 0 0
9690 1 2 0 56.485666582143544 18.26283509846047 -2.214595596847721 0 0 0
9844 1 2 0 52.91168952774874 20.051920456307673 -2.313327288424476 0 0 0
9842 1 2 0 55.52446894440117 20.737985901634133 -2.2286329541722427 0 0 0
6967 1 1 0 56.74676649061975 19.798313066524134 -1.6513224860879236 0 0 0
6969 1 1 0 54.01693106137384 21.074112180897306 -1.6409589346326867 0 0 0
13474 1 2 0 54.042048827803974 20.945698944543995 -1.6166879390284213e-07 0 0 0
13472 1 2 0 56.80659086379525 19.764884098388965 -5.164739037011942e-07 0 0 0
9846 1 2 0 53.52935009639636 22.565885741729556 -2.1308547944229472 0 0 0
9843 1 2 0 58.140843020741876 20.46914355826819 -2.269428911242464 0 0 0
6970 1 1 0 61.32966477119274 17.746239076914392 -1.5696894549696991 0 0 0
6971 1 1 0 59.63363766595972 20.31047758272584 -1.5704320919922214 0 0 0
9847 1 2 0 59.999136800914115 18.709896212656428 -1.717359949833533 0 0 0
9848 1 2 0 62.62930993091626 18.500959846099036 -2.2696978462442625 0 0 0
9849 1 2 0 60.866662827163765 21.17279751619791 -2.258541986302934 0 0 0
13476 1 2 0 59.50091563815676 20.799827724636412 -8.542347704270306e-07 0 0 0
7049 1 1 0 61.68579184619666 22.48910047734059 -1.6476621104972444 0 0 0
9904 1 2 0 63.246361923162176 22.566057684470614 -2.2111942066842367 0 0 0
6974 1 1 0 64.12835687579832 18.89630476639841 -1.6490232678620427 0 0 0
6939 1 1 0 68.87648754762716 18.40076866430089 -1.648935497800676 0 0 0
9803 1 2 0 68.8282306431903 19.99095318595447 -2.162528827451106 0 0 0
7007 1 1 0 64.68755130607292 21.938513588541166 -1.6476414051422206 0 0 0
9853 1 2 0 64.72029740891699 20.355611903752497 -2.1954603646125297 0 0 0
13444 1 2 0 68.84023190438494 18.40150304354337 -3.533271239496904e-07 0 0 0
13479 1 2 0 64.11564175943892 18.955519245969974 -4.456194202996292e-07 0 0 0
9903 1 2 0 65.9674659950695 22.86563564250596 -2.1966693607879564 0 0 0
9901 1 2 0 68.67660722222767 22.714225692528185 -2.1713600599679554 0 0 0
9799 1 2 0 70.2607271288651 17.748427811362017 -2.286601024249394 0 0 0
7006 1 1 0 69.58712675440901 21.397129772948965 -1.6484375072737816 0 0 0
9902 1 2 0 71.17390045734554 21.399258016203675 -2.2305885712528726 0 0 0
7010 1 1 0 72.74040519557695 21.322212055847892 -1.638942271875201 0 0 0
9906 1 2 0 73.75421981428903 20.101387482472195 -2.167161069532988 0 0 0
13511 1 2 0 69.62826572925472 21.44067448264 -5.156623074853174e-07 0 0 0
9908 1 2 0 73.60890714403162 22.631639453657414 -2.1754755827197467 0 0 0
9809 1 2 0 75.4395623362418 18.072936214404344 -2.1941578628588245 0 0 0
7009 1 1 0 75.26449720402442 19.60707302460655 -1.6455379285768736 0 0 0
9907 1 2 0 76.69823583534578 20.173864404005943 -2.238969073175761 0 0 0
7012 1 1 0 77.55425467967031 21.453987728869862 -1.637997688734021 0 0 0
9909 1 2 0 79.08786910465913 21.504060799455267 -2.257604710035605 0 0 0
13514 1 2 0 75.27198244589717 19.759058488448026 -9.447816467388895e-07 0 0 0
13517 1 2 0 77.70133151059613 21.410653274777864 -7.790664826743642e-08 0 0 0
7077 1 1 0 75.07952660237687 23.186214421063926 -1.6475075530911325 0 0 0
9911 1 2 0 76.59276366745476 22.700221102882377 -2.141819703807303 0 0 0
9817 1 2 0 81.06047360766087 19.676554393984897 -2.1980025656135003 0 0 0
6949 1 1 0 81.48972121727961 18.16956064921438 -1.6507824971283807 0 0 0
9815 1 2 0 83.01964204353544 17.843953266395804 -2.208172046745905 0 0 0
9816 1 2 0 85.63482952930714 18.564642165786037 -2.2141746887774136 0 0 0
7011 1 1 0 80.60906388437449 21.179538224149614 -1.6484927471289905 0 0 0
9910 1 2 0 81.66040942879654 22.33878236211425 -2.2090720504806645 0 0 0
13454 1 2 0 81.48506250973121 18.13169600115509 -1.0406063235013773e-07 0 0 0
7055 1 1 0 82.64884019306683 23.560044930674426 -1.647218502528136 0 0 0
9973 1 2 0 84.21162621733014 23.265526579979873 -2.1853408110190755 0 0 0
7054 1 1 0 85.72979893147641 22.79083571705419 -1.647369521057749 0 0 0
6978 1 1 0 86.64881616725863 19.767140153434525 -1.6473275802291443 0 0 0
9857 1 2 0 88.19569191602199 19.454654013847385 -2.1879653326805735 0 0 0