LAMMPS data file via write_data, version 2 Aug 2023, timestep = 143, units = metal

15360 atoms
2 atom types

7.027304601792905 195.03215073565664 xlo xhi
6.005882276465483 170.94132217625435 ylo yhi
-100 100 zlo zhi

Masses

1 28.085
2 15.999

Atoms # full

9219 1 2 0 7.8600224806002 6.963959016663189 -2.2377854356362836 0 0 0
9232 1 2 0 11.90846878562049 6.2204855762788185 -2.194991279374107 0 0 0
9218 1 2 0 7.464124396919753 9.754569450900501 -2.2281263171362284 0 0 0
6555 1 1 0 11.403057660382213 10.498556151047122 -1.643825176784781 0 0 0
9221 1 2 0 9.855938877856739 10.607382121555968 -2.20408414829065 0 0 0
9230 1 2 0 12.080754406092714 9.056889185329807 -2.1974341637708927 0 0 0
6549 1 1 0 8.359563493279335 11.016704429320374 -1.64564492336995 0 0 0
6548 1 1 0 7.04309419425867 8.271882387823352 -1.639554135228264 1 0 0
6556 1 1 0 12.699693025063706 7.589834618029214 -1.647735598028483 0 0 0
6808 1 1 0 15.764442070696928 7.000094792228932 -1.6466159786905838 0 0 0
9233 1 2 0 14.25326037133523 7.404419758005928 -2.2020168487098437 0 0 0
9602 1 2 0 16.77051632010669 8.207469359813631 -2.191244972413433 0 0 0
6802 1 1 0 17.53986323329905 9.584187852464263 -1.6466422247256847 0 0 0
9601 1 2 0 16.68891532124451 10.965762737586925 -2.172716980081232 0 0 0
13202 1 2 0 17.5418684416939 9.653296405558079 -3.6261396325845985e-06 0 0 0
9604 1 2 0 21.329205523563036 7.476436818098407 -2.1527570978319677 0 0 0
9600 1 2 0 19.13958629750195 9.374315969200149 -2.1480830449497765 0 0 0
6803 1 1 0 20.718404886321583 9.018719347781154 -1.6483298422052035 0 0 0
9603 1 2 0 21.62251295064958 10.37103368953637 -2.148195581051029 0 0 0
13203 1 2 0 20.75190716028975 8.963624730218996 -3.870598723022171e-06 0 0 0
6805 1 1 0 22.187640919247915 11.890473080588416 -1.6492026869002792 0 0 0
6816 1 1 0 27.89405613683923 7.2880716951454305 -1.6404123402385609 0 0 0
6814 1 1 0 27.701615775550827 10.311635384975649 -1.6504387665637958 0 0 0
9621 1 2 0 27.424927770260194 8.76261368995012 -2.227112196992323 0 0 0
9620 1 2 0 26.461911592896172 11.278035466209428 -2.2053820359981473 0 0 0
13216 1 2 0 27.843192456378983 7.371041965358083 -3.837762909202397e-06 0 0 0
13214 1 2 0 27.676300883440163 10.342426854667753 -4.5612446181517e-06 0 0 0
9624 1 2 0 26.97187282324411 6.024919394682109 -2.1766935933770464 0 0 0
9625 1 2 0 29.401728495906816 6.915122687703026 -2.211308540727193 0 0 0
9622 1 2 0 29.21943168905819 10.795701779071804 -2.1862633762265893 0 0 0
9636 1 2 0 31.937466585438855 6.401979775321016 -2.0303432481682755 0 0 0
6823 1 1 0 32.32039143013739 7.960237551834003 -1.6261964991513351 0 0 0
9637 1 2 0 33.866662171230814 8.022050114600589 -2.194237868731086 0 0 0
9630 1 2 0 31.278713758348086 9.032339821153775 -2.307572467134342 0 0 0
6819 1 1 0 30.77042215296502 10.468352604324789 -1.6484995319229452 0 0 0
13219 1 2 0 30.686318790905943 10.490261120544346 -5.217645842020092e-06 0 0 0
13223 1 2 0 32.27229495958341 8.202331534595617 -4.143428531142879e-06 0 0 0
9629 1 2 0 32.039904704575235 11.436769203573776 -2.131441685536451 0 0 0
6831 1 1 0 34.92938845214076 6.870013381518225 -1.6378965720246816 0 0 0
9648 1 2 0 36.36367403818045 7.5116558329524965 -2.1619614751981135 0 0 0
13231 1 2 0 34.83081548576261 6.694417533894774 -3.99674816349813e-06 0 0 0
13230 1 2 0 36.20280760035521 9.067598477596192 -3.427401006638411e-06 0 0 0
6836 1 1 0 39.59745487582044 7.629328264492067 -1.4889701670817488 0 0 0
9658 1 2 0 38.75952812655883 6.448515303933104 -2.2682808056732986 0 0 0
6830 1 1 0 36.92110525385414 8.906772512675666 -1.4874546315454789 0 0 0
9646 1 2 0 36.642563014895124 10.281891551226106 -2.3403152754595498 0 0 0
9649 1 2 0 38.557416981789515 8.896228106890563 -1.321467218561302 0 0 0
6834 1 1 0 41.625374716537465 9.637652154313082 -1.6566896697907483 0 0 0
9655 1 2 0 40.887066094269464 8.281082396175586 -2.281661940898121 0 0 0
9654 1 2 0 41.001660787992286 11.060616691792283 -2.2196167623901792 0 0 0
6829 1 1 0 37.15032836470641 11.705795369865083 -1.6551332635166802 0 0 0
13229 1 2 0 37.21836701251686 11.691938320695208 -3.4261060117752948e-06 0 0 0
9663 1 2 0 45.653293446618385 8.538585171962852 -2.1516944925172354 0 0 0
9656 1 2 0 43.13802287207242 9.49791953857768 -2.2720125072797503 0 0 0
6839 1 1 0 44.6318598483433 9.708067126238653 -1.6389820793362986 0 0 0
9662 1 2 0 45.229801512822895 11.093928705746551 -2.2624116745636536 0 0 0
9669 1 2 0 44.62540732448266 6.125834496244593 -2.2917914741871996 0 1 0
6843 1 1 0 45.88722190227738 6.99253311056913 -1.6471637397627887 0 0 0
9670 1 2 0 47.391907560764984 6.62863931724323 -2.2419393937941168 0 0 0
13243 1 2 0 45.88281274031788 6.844904817741166 -3.566495713742125e-06 0 0 0
6851 1 1 0 48.88393181538935 7.031453380138568 -1.6412485417438465 0 0 0
9680 1 2 0 49.51257425858834 8.443967509678266 -2.220660817427418 0 0 0
6849 1 1 0 50.69887325068641 9.44542215549045 -1.6474632964473666 0 0 0
9679 1 2 0 50.258264893114905 10.91691633148138 -2.227773899875599 0 0 0
6852 1 1 0 53.72237039563986 8.880159728976198 -1.643398035487825 0 0 0
9681 1 2 0 52.21998967239734 9.19847406364921 -2.253465502151362 0 0 0
6856 1 1 0 55.1310687163149 6.221651541347489 -1.6434983775689387 0 0 0
9685 1 2 0 54.08906602861931 7.373636959506289 -2.1843047567544036 0 0 0
9684 1 2 0 54.92296180183091 9.86008367035805 -2.2232420649884626 0 0 0
6853 1 1 0 55.82711135771884 11.115895611591876 -1.6481120059973244 0 0 0
9692 1 2 0 56.646546467334794 6.552235051792022 -2.2305419258720587 0 0 0
13253 1 2 0 55.86072268240878 11.116308003655822 -2.1674313711521133e-06 0 0 0
6861 1 1 0 58.19538790345323 6.424729983174773 -1.647072578189359 0 0 0
9698 1 2 0 59.20972581775813 7.5908985960151405 -2.233291179963576 0 0 0
9687 1 2 0 57.37459442501477 11.068484348897126 -2.2328996928287914 0 0 0
6859 1 1 0 58.90848058115571 11.308118270824613 -1.6449403195618741 0 0 0
13259 1 2 0 58.85880713874703 11.327112572794897 -1.520580062240967e-06 0 0 0
6860 1 1 0 60.35988682395742 8.63124333525949 -1.645502898894774 0 0 0
9696 1 2 0 59.91357620379171 10.1229851832615 -2.195500293501713 0 0 0
9699 1 2 0 61.88614112879743 8.315180825802022 -2.213584855878527 0 0 0
13260 1 2 0 60.37229219163081 8.571740530609208 -3.0197795512846547e-06 0 0 0
9716 1 2 0 64.29445781370282 7.060671907575867 -2.194167336128372 0 0 0
6870 1 1 0 63.45420948519448 8.397137632123872 -1.6485565782320752 0 0 0
9704 1 2 0 64.1691337600101 9.797769279559533 -2.198081319269508 0 0 0
6863 1 1 0 65.11580688027831 11.059693653486478 -1.6471622511178778 0 0 0
13270 1 2 0 63.44472507096762 8.417460320653737 -8.344994769981867e-07 0 0 0
9702 1 2 0 66.67576564208385 10.750950750790258 -2.1749556923661424 0 0 0
9717 1 2 0 67.81579617402565 6.091350473622129 -2.14448934513097 0 1 0
6871 1 1 0 68.95883659333752 7.166601707686422 -1.638560219030284 0 0 0
9718 1 2 0 70.34212033148128 6.449235388849053 -2.212339981065471 0 0 0
6864 1 1 0 68.17289847629452 10.213919884865806 -1.650997437610144 0 0 0
9706 1 2 0 68.56234467447186 8.683562284311968 -2.2182248528469097 0 0 0
9705 1 2 0 69.33768055451591 11.258497749574659 -2.241851866849519 0 0 0
9724 1 2 0 72.66647013131572 7.429199464996068 -2.2643739004704715 0 0 0
6877 1 1 0 71.86128922494115 6.117207119538442 -1.6502101020205215 0 0 0
9725 1 2 0 75.19848976667782 7.984467510844397 -2.307014286304394 0 0 0
6879 1 1 0 76.55141893437875 7.393367579668048 -1.6361764200123963 0 0 0
6875 1 1 0 73.77762412710698 8.457500320912967 -1.6430290454711314 0 0 0
9723 1 2 0 73.68556788873425 10.032695829717339 -2.159593299736927 0 0 0
6876 1 1 0 74.83692746919209 11.117195702126265 -1.6463495192171973 0 0 0
9727 1 2 0 76.35611348075986 10.894321893168902 -2.267615202161289 0 0 0
13279 1 2 0 76.54121432474221 7.562672881918083 -6.519740268604028e-08 0 0 0
9730 1 2 0 77.8102184937223 8.187608127379328 -2.309481518555357 0 0 0
6880 1 1 0 79.07331966100185 8.990413543631462 -1.6382714400730622 0 0 0
9732 1 2 0 78.99747747547542 10.570384516523092 -2.098197206967843 0 0 0
6891 1 1 0 81.65572909072444 7.498463263079876 -1.644048053354072 0 0 0
9733 1 2 0 80.40361662112 8.329887963825783 -2.3042495468712985 0 0 0
9750 1 2 0 83.00763648629795 8.23290465570201 -2.19008842498083 0 0 0
9752 1 2 0 82.35122070427089 10.810223209261816 -2.2397879033247365 0 0 0
13280 1 2 0 79.07823730591709 8.848612974742387 -1.9040849008787442e-07 0 0 0
13293 1 2 0 83.39203274472142 9.818733463778416 -6.827158351039611e-08 0 0 0
6881 1 1 0 77.73969784612711 11.5427329769648 -1.638249258621403 0 0 0
13281 1 2 0 77.61904326127389 11.577265748564729 -1.3936146375869086e-07 0 0 0
6893 1 1 0 83.43246268453636 9.7267292838419 -1.6423901999476516 0 0 0
9762 1 2 0 85.45213282835181 7.230899311865373 -2.16970698224851 0 0 0
6903 1 1 0 88.79736584017967 6.023176493995497 -1.597469552285362 0 0 0
9755 1 2 0 84.98946698159142 9.89124146248993 -2.1685263642368726 0 0 0
6898 1 1 0 86.02811426648525 8.710624499146862 -1.6444507544132958 0 0 0
9759 1 2 0 87.48456001760127 9.181561801245767 -2.2493688908583205 0 0 0
6897 1 1 0 89.00132542357122 8.923266203250243 -1.6407208452388549 0 0 0
13303 1 2 0 88.50896197917388 6.270408145896404 8.663384341518042e-08 0 0 0
13298 1 2 0 86.11001097754814 8.651826385387276 -3.469982674995365e-07 0 0 0
9761 1 2 0 89.46079439732695 7.425142657272454 -2.173607455407889 0 0 0
9760 1 2 0 90.08178377231594 9.970351234397624 -2.2916575680353453 0 0 0
9775 1 2 0 92.08741420175645 6.08136046197715 -2.3044541065184485 0 0 0
6906 1 1 0 93.1572842741615 7.142692172833848 -1.647577991513537 0 0 0
9776 1 2 0 94.66822452587763 6.711391231602527 -2.1857453694764057 0 0 0
6905 1 1 0 93.57031776420892 10.023585619996767 -1.642937418943736 0 0 0
9773 1 2 0 92.8800819939563 8.64188599311469 -2.237295784760782 0 0 0
9774 1 2 0 95.07775871849259 10.184686087937319 -2.2711814120427825 0 0 0
6899 1 1 0 90.95570031932644 11.209764877500733 -1.6442024870818774 0 0 0
9764 1 2 0 92.5329672953323 11.201026872440869 -2.151126398070362 0 0 0
13299 1 2 0 90.90237116305242 11.190803763161647 3.090890347644509e-07 0 0 0
13305 1 2 0 93.6890056182019 10.006936370975614 3.675896347614494e-08 0 0 0
9787 1 2 0 97.89177804769612 7.106396375769309 -2.1963073767339885 0 0 0
6914 1 1 0 98.54567543336557 8.519465957640518 -1.6430265646199698 0 0 0
9782 1 2 0 97.72012070990328 9.830760815169489 -2.234928943648968 0 0 0
9062 1 2 0 100.06829412590587 8.379404252419747 -2.246539090973818 0 0 0
6910 1 1 0 96.48551659019373 10.786864053853419 -1.649284378865289 0 0 0
13310 1 2 0 96.52868755178969 10.757303514449307 2.3707169769042792e-07 0 0 0
9220 1 2 0 7.772181918332006 12.462531510056971 -2.2340195689008495 0 0 0
9231 1 2 0 11.996720580265622 11.95167058538358 -2.1929345268840827 0 0 0
9224 1 2 0 7.217430761999309 15.246247388482775 -2.29704283155969 0 0 0
9266 1 2 0 12.154999614698855 14.771071259428954 -2.1708033317579694 0 0 0
6577 1 1 0 8.14101153930103 16.432880846487688 -1.607152859480143 0 0 0
6578 1 1 0 11.209556131957834 16.083366825568618 -1.5817580618701128 0 0 0
9264 1 2 0 9.616526754042283 15.683079631387573 -1.8145313808282681 0 0 0
12951 1 2 0 7.05863774927891 13.763520485135853 -1.1009161220290337e-06 0 0 0
12977 1 2 0 7.830522102476136 16.580432563745248 -3.718953552397703e-06 0 0 0
6579 1 1 0 12.836011787041615 13.283476389617018 -1.6462019280440845 0 0 0
9267 1 2 0 11.094068332496615 17.656328361550397 -2.210152958416645 0 0 0
6804 1 1 0 15.893269590540738 12.373800653297977 -1.6426227586271342 0 0 0
9268 1 2 0 14.36338778903177 12.819160056851825 -2.166665743567686 0 0 0
9605 1 2 0 16.71632924366923 13.691842756725505 -2.1994303901451353 0 0 0
6806 1 1 0 17.399195955576708 15.084092483008238 -1.6449421452710922 0 0 0
9609 1 2 0 16.590274612166933 16.466196955562598 -2.213773066883407 0 0 0
6921 1 1 0 15.641887472744017 17.6668109044536 -1.5174945202233832 0 0 0
9608 1 2 0 18.937198632352825 14.869699922401226 -2.217953385917482 0 0 0
6807 1 1 0 20.481305836836214 14.6155758239773 -1.647973476152304 0 0 0
9606 1 2 0 21.250284448100803 13.206339664424828 -2.179644317714746 0 0 0
9610 1 2 0 21.174723455710247 16.013567613809798 -2.227988988116267 0 0 0
13207 1 2 0 20.47412282490643 14.524205100450313 -3.6533205745467413e-06 0 0 0
13205 1 2 0 22.16814762766608 11.907247997865309 -4.55819667645825e-06 0 0 0
9607 1 2 0 23.779767629917448 12.088954937465113 -2.1786410140165233 0 0 0
6922 1 1 0 21.3969288574049 17.550324222666355 -1.6408660628046494 0 0 0
6815 1 1 0 25.342741722923247 12.400911606021968 -1.649378302179441 0 0 0
9623 1 2 0 25.8621197375377 13.902405283640665 -2.1961970490882314 0 0 0
6822 1 1 0 27.03875012050842 14.947678748994774 -1.6502533049471526 0 0 0
9633 1 2 0 28.511131486297025 14.392946571338578 -2.1862272349025513 0 0 0
9635 1 2 0 27.04375001335779 16.495287972052857 -2.2759498112794874 0 0 0
13215 1 2 0 25.33279195903609 12.376355997038639 -1.1645333155810654e-05 0 0 0
13222 1 2 0 26.92984844233909 14.986202431875107 -1.1652021741114047e-05 0 0 0
6821 1 1 0 29.998433673233947 14.833431915277322 -1.6444916357216328 0 0 0
13221 1 2 0 29.972872199221225 14.854977026767457 -1.8604818876918595e-05 0 0 0
9631 1 2 0 31.006503600780974 13.70962918149226 -2.2601847129562196 0 0 0
6820 1 1 0 32.34024854647509 12.98661130270297 -1.6399591704874512 0 0 0
9632 1 2 0 33.66568306150064 13.777555353073497 -2.2499695221876586 0 0 0
9634 1 2 0 30.62798350995626 16.24952110300183 -2.2618413471830516 0 0 0
13220 1 2 0 32.43065837760917 13.07990201718857 -1.188267690182523e-05 0 0 0
9643 1 2 0 33.476097375343066 16.83576344515115 -2.2009965185273135 0 0 0
13227 1 2 0 31.90761997955743 16.828056379996905 -1.1899202217306758e-05 0 0 0
9640 1 2 0 35.977775101115306 12.689708318111416 -2.2077829403760227 0 0 0
6825 1 1 0 35.1975998937602 14.003097262096905 -1.6411926337351581 0 0 0
9639 1 2 0 36.11569544255616 15.249753969354263 -2.2411286805369115 0 0 0
13225 1 2 0 35.14256632188406 14.154843937461363 -4.138313109586401e-06 0 0 0
6827 1 1 0 31.89148736005743 17.087292796270738 -1.6328463198743515 0 0 0
13228 1 2 0 34.64199001782078 17.699396386178215 -8.091612957128997e-06 0 0 0
9647 1 2 0 38.59743859294256 12.235522249328117 -2.2413537768385785 0 0 0
6826 1 1 0 37.028953535133006 16.491750288186175 -1.6394548871630927 0 0 0
9642 1 2 0 38.52735598469511 16.721051152132567 -2.2667708865594745 0 0 0
13226 1 2 0 37.15774349423743 16.342273910760397 -2.2950646438669884e-07 0 0 0
6835 1 1 0 40.13157844437518 12.341250506358689 -1.6455345593376447 0 0 0
9657 1 2 0 40.74394822370591 13.763130060867505 -2.2280424609363 0 0 0
6841 1 1 0 41.68244335186194 14.992889249031673 -1.6467360126958444 0 0 0
9667 1 2 0 41.13249395199036 16.466653695841558 -2.169614768046091 0 0 0
6929 1 1 0 39.900497629547786 17.437024726483244 -1.6476056607102487 0 0 0
9666 1 2 0 43.198290011128705 14.804282795741146 -2.269471482248905 0 0 0
6842 1 1 0 44.71810882619656 14.838303042580526 -1.6439252657204717 0 0 0
9664 1 2 0 45.650661358922996 13.627022644281585 -2.240327678341744 0 0 0
9668 1 2 0 45.47273556598408 16.185858105948057 -2.2126386772662334 0 0 0
6840 1 1 0 46.24316224544604 12.220258748805763 -1.6478109403583028 0 0 0
9665 1 2 0 47.74200776013571 11.952264311704539 -2.2721681269648895 0 0 0
6930 1 1 0 46.871821668588446 16.834500212109713 -1.6454156395737518 0 0 0
6850 1 1 0 49.25245467284882 12.07220345888728 -1.640463969076244 0 0 0
9682 1 2 0 49.889068529075274 13.48950186869191 -2.1728021591113476 0 0 0
6854 1 1 0 51.247609410621784 14.248426050520584 -1.6418127513344138 0 0 0
9689 1 2 0 51.03447268808529 15.799055725619695 -2.194474396351894 0 0 0
9810 1 2 0 48.26205424217621 16.077421598189616 -2.1601434941039255 0 0 0
6931 1 1 0 49.730050305903184 16.664609860278464 -1.6414190684996368 0 0 0
9688 1 2 0 52.60215524294178 13.525589332682049 -2.2457579895121724 0 0 0
9686 1 2 0 55.0979604139734 12.46187302086713 -2.260774782323293 0 0 0
6855 1 1 0 54.1412908109972 13.64057067334723 -1.6450567020832314 0 0 0
9690 1 2 0 54.716503901519914 15.060913303200575 -2.217774509774898 0 0 0
6933 1 1 0 55.632103416189764 16.28838805787201 -1.646126142616628 0 0 0
13255 1 2 0 54.164671140976665 13.579985922918814 -2.918099905048559e-06 0 0 0
9697 1 2 0 59.53813506825145 12.722841104443335 -2.218051106940183 0 0 0
9722 1 2 0 59.82087038437451 15.341892405755805 -2.2272360715822845 0 0 0
6932 1 1 0 58.67553312535861 16.384382012254463 -1.6481776283613898 0 0 0
9813 1 2 0 57.15836055853926 16.048464856616462 -2.2269904748488067 0 0 0
9815 1 2 0 54.87879794203426 17.632715975441915 -2.2638268943161197 0 0 0
6874 1 1 0 60.50484693948634 13.93937278784029 -1.6479714858966075 0 0 0
9708 1 2 0 62.05773415645754 13.754690423762604 -2.2037745955308248 0 0 0
9703 1 2 0 64.50826016009916 12.538055151772735 -2.1868754046625054 0 0 0
6865 1 1 0 63.627737217035914 13.870831595988387 -1.6484973454569638 0 0 0
9707 1 2 0 64.18943908641238 15.354493237929775 -2.195501104967228 0 0 0
6867 1 1 0 64.62343991639797 16.875635609894275 -1.6488966606480249 0 0 0
13267 1 2 0 64.62638880665504 16.833450009934882 -1.887444454517523e-07 0 0 0
6866 1 1 0 70.29649377520418 12.469460545916531 -1.6359004036242242 0 0 0
9709 1 2 0 69.93533828240209 13.948264512943163 -2.275474860056701 0 0 0
9713 1 2 0 68.45420854060937 15.935103747790803 -2.1218186555693683 0 0 0
6868 1 1 0 69.95737351746921 15.472277671945077 -1.640302770813451 0 0 0
9714 1 2 0 71.2009761414768 16.494540048471645 -2.1280117609408022 0 0 0
9711 1 2 0 66.1369056127745 17.238303659847034 -2.24486293901465 0 0 0
6869 1 1 0 67.6765988177204 17.303251207806124 -1.649093427135133 0 0 0
9710 1 2 0 71.89088649971546 12.333784523678364 -2.08209550111943 0 0 0
6878 1 1 0 73.11047826848197 13.383633621465819 -1.6367547982894697 0 0 0
9729 1 2 0 73.24967979688117 14.909017638261714 -2.253947698716473 0 0 0
6938 1 1 0 72.80890940177244 16.396068141972926 -1.6462342891304411 0 0 0
9726 1 2 0 74.4638253990242 12.627351208972353 -2.1794614870525013 0 0 0
9822 1 2 0 73.86577135308164 17.563517364172043 -2.2397334568757703 0 0 0
9734 1 2 0 78.11456920433058 13.058845151763576 -2.188285064069499 0 0 0
6892 1 1 0 82.17798622512767 12.339508787104938 -1.6452315372265658 0 0 0
6894 1 1 0 79.50790461350891 13.78033873153259 -1.648019379611068 0 0 0
9753 1 2 0 80.79525939017515 12.954137353366553 -2.2657836901783583 0 0 0
9756 1 2 0 79.56331431810878 15.301445034431673 -2.250221146451739 0 0 0
6944 1 1 0 80.14334425681356 16.722233159499147 -1.6496523296339043 0 0 0
13344 1 2 0 80.14381768268963 16.724233919781017 -6.178562391288245e-07 0 0 0
9832 1 2 0 81.64600490050668 17.0481142725374 -2.2352553843827927 0 0 0
6977 1 1 0 83.18142197604433 17.03546874552007 -1.6443583215123792 0 0 0
9754 1 2 0 83.49820097417329 13.117241127154202 -2.240950619529153 0 0 0
9769 1 2 0 83.97144270750147 15.725398954197479 -2.2424703718041044 0 0 0
6902 1 1 0 84.4827602430136 14.279081800775021 -1.6521904993830616 0 0 0
9767 1 2 0 85.99493680824638 13.953827780067524 -2.25365950574077 0 0 0
9765 1 2 0 88.69432652998475 14.564640876163889 -2.3123470944056246 0 0 0
6901 1 1 0 87.25950952905511 14.734506879674534 -1.5365802312553571 0 0 0
9768 1 2 0 86.8346388234021 16.329876339962098 -1.557911411809628 0 0 0
6947 1 1 0 87.66163849252624 17.74678491299853 -1.531805033065726 0 0 0
9836 1 2 0 89.16068442924735 17.51134159291817 -2.1883061174785436 0 0 0
9763 1 2 0 90.28718840918319 12.570008744891636 -2.240750550170926 0 0 0
6900 1 1 0 90.13174141796134 14.08645181098096 -1.6496752464976145 0 0 0
9766 1 2 0 91.38293961261242 14.960743827738026 -2.258847809001213 0 0 0
6912 1 1 0 92.41206680088797 16.089654989159474 -1.6474215540442074 0 0 0
9784 1 2 0 93.9200943407514 15.730916315927674 -2.204989298034118 0 0 0
13300 1 2 0 90.16879766705875 14.180313274100762 1.031963933319381e-08 0 0 0
9785 1 2 0 91.88175909365528 17.565438046164285 -2.208619798380295 0 0 0
6913 1 1 0 95.41252174579313 16.201465224574847 -1.648038150839556 0 0 0
9781 1 2 0 96.50215224149179 12.354307652564637 -2.1799279774970035 0 0 0
9783 1 2 0 96.53042795773993 15.102996496246796 -2.2293210184143084 0 0 0
6911 1 1 0 97.27102990603721 13.720644698275498 -1.6422311289866323 0 0 0
9239 1 2 0 98.81408630062589 13.4515146963252 -2.1736005409534016 0 0 0
6560 1 1 0 100.35136945205237 13.765676286784371 -1.6526540306676674 0 0 0
9237 1 2 0 100.56453736650565 15.29213705023042 -2.2942061503721964 0 0 0
12959 1 2 0 100.75082139815028 16.681083355820487 -1.7189681901858875e-07 0 0 0
13311 1 2 0 97.24505217289588 13.819591934021988 -4.409190937452123e-07 0 0 0
12960 1 2 0 100.45825225777064 13.774491025379367 -7.151494205791206e-08 0 0 0
9786 1 2 0 95.59690555161458 17.759436226676943 -2.2226336296791613 0 0 0
9265 1 2 0 7.736745499416801 17.95328465293447 -2.2232878262698 0 0 0
6618 1 1 0 10.816176363727651 19.228874274709685 -1.6238632224416516 0 0 0
9326 1 2 0 12.206312855866072 19.918393989314257 -2.124969218330647 0 0 0
6617 1 1 0 8.667973107497247 21.597120872305563 -1.6336514586684663 0 0 0
9291 1 2 0 7.288992715923812 20.790581459390484 -2.106310698020069 0 0 0
9324 1 2 0 9.790325190523653 20.450176218755768 -2.1744994372813973 0 0 0
9325 1 2 0 8.545421719345 23.211927187316444 -2.172888271131747 0 0 0
6657 1 1 0 13.750518460836776 19.68767272428903 -1.6483838061422904 0 0 0
9386 1 2 0 14.21306983632991 18.15865201611233 -2.2667054800632176 0 0 0
9797 1 2 0 16.23996779665756 19.21766232932738 -1.4092563459399918 0 0 0
9385 1 2 0 14.280278986073402 21.16181703160204 -2.2128021806180285 0 0 0
9388 1 2 0 16.61040274500096 22.045699651966714 -2.1808213867460715 0 0 0
6954 1 1 0 17.128816111886458 20.603594599996768 -1.5309996422071266 0 0 0
6658 1 1 0 15.090091087790462 22.489127166480763 -1.6469525470828676 0 0 0
9847 1 2 0 18.39579674023995 19.9840837208808 -2.3414593512910136 0 0 0
9799 1 2 0 20.606656352484613 18.89308661477547 -2.22503316749363 0 0 0
9798 1 2 0 22.8945054843284 17.853497045264966 -2.2653012818304203 0 0 0
6955 1 1 0 19.875626351894713 20.274774593926978 -1.655813343658417 0 0 0
9848 1 2 0 20.00840207501646 21.844189378742577 -2.277099226351564 0 0 0
9900 1 2 0 22.2503088019582 21.940283672442845 -1.3585478440311356 0 0 0
6924 1 1 0 23.88861060998188 18.904043182372128 -1.5040998928132445 0 0 0
6990 1 1 0 23.85296183525349 21.741539754988754 -1.4882311197705487 0 0 0
9802 1 2 0 24.154182513812675 20.332713170156527 -2.3175188411467254 0 0 0
7017 1 1 0 20.96267518559253 22.963156476533072 -1.5008413125775766 0 0 0
9899 1 2 0 24.317380004133927 23.174550814646775 -2.131179068119614 0 0 0
6923 1 1 0 26.831455748235626 17.945034334191867 -1.4939735010308226 0 0 0
9800 1 2 0 25.215859364320725 18.002996002990077 -1.3462690450499215 0 0 0
9801 1 2 0 27.264747612781658 19.327503799626886 -2.307646530519627 0 0 0
6958 1 1 0 27.41704851853484 20.83305508963466 -1.6100262406201413 0 0 0
9852 1 2 0 28.919747127559102 21.282418963463165 -2.1420198799080654 0 0 0
9853 1 2 0 26.60232364215566 22.221777064004005 -2.0889653588643435 0 0 0
13323 1 2 0 27.567870130757985 17.88222560755251 -9.835548417858015e-06 0 0 0
13358 1 2 0 27.10232492345387 20.627635568496576 -3.8294247227291774e-06 0 0 0
6991 1 1 0 25.83645762039874 23.65156385621789 -1.6162007113253716 0 0 0
13361 1 2 0 28.808375589086893 22.757165946076558 -4.433719810960877e-06 0 0 0
6961 1 1 0 29.215489570348506 22.823549182330055 -1.6070319584312294 0 0 0
9644 1 2 0 31.60399894615701 18.636229375160628 -2.1198008798433574 0 0 0
6959 1 1 0 32.541883069974276 19.89687162490176 -1.6484558475179474 0 0 0
9854 1 2 0 31.954117576999238 21.143376071339656 -2.4863587749811304 0 0 0
9855 1 2 0 33.93811741384334 21.980784209479335 -1.301571162375975 0 0 0
13359 1 2 0 32.553155182034416 19.882218706586215 -1.0777994516526725e-05 0 0 0
13360 1 2 0 31.902969729692515 22.498011678423005 -3.9244804753016825e-06 0 0 0
9645 1 2 0 34.23661686400574 19.531453049504734 -2.0768173929397706 0 0 0
6828 1 1 0 34.6170738580418 17.907744306781417 -1.6288542724170703 0 0 0
9641 1 2 0 36.149427981738256 17.81016250963296 -2.1774378087296102 0 0 0
6992 1 1 0 35.155787780992945 20.942464538978623 -1.4597173292769365 0 0 0
9902 1 2 0 36.332909372831615 21.787544668583337 -2.263828381768849 0 0 0
13392 1 2 0 35.74699774929993 20.382585746363848 -2.482727941615707e-06 0 0 0
9856 1 2 0 30.708833707599382 23.178012660734982 -2.064494673301806 0 0 0
6960 1 1 0 32.269504308277234 22.563122241599064 -1.6016560456548397 0 0 0
9809 1 2 0 40.06595211653042 18.98842412610673 -2.220838384757638 0 0 0
9861 1 2 0 40.14221567262147 21.768560991272206 -2.2248313150997747 0 0 0
6963 1 1 0 40.81051809931937 20.363502987142333 -1.644584492928446 0 0 0
6994 1 1 0 36.693063556211264 23.333811663994915 -1.6553011902016168 0 0 0
9903 1 2 0 38.23222145696122 23.62594356666131 -2.1533993164873677 0 0 0
6993 1 1 0 39.752000157310455 23.27869119276031 -1.6417378392516322 0 0 0
9860 1 2 0 42.37068205081278 20.302759893538255 -2.185681293597662 0 0 0
6965 1 1 0 43.736780189983364 21.04943395637896 -1.6459983741162414 0 0 0
9862 1 2 0 44.99587826708947 20.179872485145648 -2.234928122731277 0 0 0
9811 1 2 0 46.893402251086215 18.347194484853848 -2.2702219425450334 0 0 0
6964 1 1 0 46.484390655802834 19.801806622793837 -1.646214477911396 0 0 0
9863 1 2 0 47.59893562337672 20.841154439449138 -2.242990038637659 0 0 0
9864 1 2 0 43.818956506674674 22.578142643070727 -2.2730497588565015 0 0 0
9812 1 2 0 49.862620065741055 18.219144925411364 -2.165650819838732 0 0 0
6966 1 1 0 50.941840403371415 19.359775258117573 -1.6462464412346223 0 0 0
6997 1 1 0 48.95974226863264 21.54145933681758 -1.6467980371740596 0 0 0
9866 1 2 0 50.348000170487396 20.806741754074913 -2.1992445352436594 0 0 0
6967 1 1 0 53.826500925836584 18.671800551695988 -1.5207757298552846 0 0 0
9865 1 2 0 52.3991804390246 18.936465462594754 -2.3125015620890994 0 0 0
9909 1 2 0 48.82396800150811 23.062951832521733 -2.235525307122512 0 0 0
9954 1 2 0 53.175017316573154 23.610345277308646 -2.2224159759078725 0 0 0
9867 1 2 0 54.51712275707764 20.152501726484473 -1.477991218247931 0 0 0
6998 1 1 0 55.99224685210606 20.863279852101243 -1.5173673270855081 0 0 0
9910 1 2 0 55.66083961185536 22.272333231699598 -2.3310618811406214 0 0 0
6936 1 1 0 58.56627555064012 19.367742321124744 -1.6456677060604366 0 0 0
9820 1 2 0 57.09015935518618 19.85748775333653 -2.2370248408838247 0 0 0
9814 1 2 0 59.02242043725255 17.894349912866883 -2.230303624102681 0 0 0
9819 1 2 0 59.626372427161826 20.459111741359045 -2.2349850400699967 0 0 0
7029 1 1 0 54.70674607773277 23.419842955255078 -1.6028021843402294 0 0 0
6937 1 1 0 60.86814620657311 21.356407227325228 -1.6453606640114522 0 0 0
9817 1 2 0 62.23542127406457 20.603284525671114 -2.2158509105734985 0 0 0
6935 1 1 0 63.53058570720904 19.7227492598342 -1.6517120850257507 0 0 0
9712 1 2 0 63.61512117098135 18.122005043732614 -2.153698568157692 0 0 0
9818 1 2 0 64.83636127480585 20.536505231247283 -2.2876784745354386 0 0 0
13335 1 2 0 63.504173402793164 19.70264571220038 -3.058799077908035e-07 0 0 0
13374 1 2 0 65.49756496535134 21.717955673878365 -5.578818056165983e-07 0 0 0
9821 1 2 0 60.51286445348174 22.882946599500663 -2.2281497232845218 0 0 0
6974 1 1 0 66.06973933386251 21.279274623557264 -1.4937278149459825 0 0 0
9876 1 2 0 67.29631784242353 20.23613434150721 -1.32088370939788 0 0 0
9715 1 2 0 68.71631422097776 18.433163133975793 -2.319907435925075 0 0 0
6973 1 1 0 68.87981259898613 19.85240200852097 -1.4953225424235757 0 0 0
9877 1 2 0 69.79747115223653 20.967958879365344 -2.2957689165293926 0 0 0
7001 1 1 0 70.44580471387161 22.345498755010507 -1.6462923670540304 0 0 0
13373 1 2 0 69.55490795754632 19.595091695062074 -5.084549511654519e-07 0 0 0
13401 1 2 0 70.31241395379472 22.30931667695508 -3.0146457198789406e-07 0 0 0
9878 1 2 0 66.76502414675478 22.566421267191448 -2.2708565695114693 0 0 0
9914 1 2 0 71.99332438114733 22.475190184105653 -2.1882560416798293 0 0 0
6945 1 1 0 75.01622859582015 18.633895045280397 -1.6413766915393622 0 0 0
9834 1 2 0 74.67482576276822 20.18588554498745 -2.1487735702310484 0 0 0
9833 1 2 0 76.58958140596077 18.44296733486197 -2.1779591568185457 0 0 0
7000 1 1 0 75.40069730340663 21.59632675702195 -1.6450158625996143 0 0 0
9913 1 2 0 76.87385441408456 22.043801819520223 -2.2301144726568087 0 0 0
7002 1 1 0 73.16763089814854 23.496478328082553 -1.6446756509585487 0 0 0
13402 1 2 0 73.08145989708761 23.538563522086395 -3.8897760570177916e-07 0 0 0
9912 1 2 0 74.53428805870156 22.844441397372115 -2.2411173403795024 0 0 0
6946 1 1 0 78.0979666742937 18.93094791587855 -1.6469336579021823 0 0 0
7006 1 1 0 78.40893018533491 21.917483209204054 -1.6403492432960174 0 0 0
9835 1 2 0 78.78637040650587 20.3738454340064 -2.1388476826083043 0 0 0
13346 1 2 0 78.05116953735276 18.933329151678052 -3.646256063260918e-07 0 0 0
9831 1 2 0 79.1357770377484 17.84113756351577 -2.2874563683693085 0 0 0
9922 1 2 0 79.33269990711055 23.172243772935175 -2.2360828085923936 0 0 0
9882 1 2 0 83.96045440142191 18.357970405352933 -2.232222221001445 0 0 0
7010 1 1 0 85.20250913078056 19.269982844691377 -1.655428451863777 0 0 0
9837 1 2 0 86.6791740816024 18.832490277155742 -2.287816049657471 0 0 0
9928 1 2 0 84.9116438367426 20.76156663756062 -2.253384103960709 0 0 0
7042 1 1 0 85.15940532867052 22.258549990348794 -1.6438174768109421 0 0 0
9933 1 2 0 89.21205410676691 22.225221553327444 -2.2709531978807638 0 0 0
13410 1 2 0 85.21102020825076 19.241577447131547 -4.025217882162094e-07 0 0 0
13347 1 2 0 87.89784404989709 18.314851104618526 -1.6608187986560333e-08 0 0 0
13442 1 2 0 85.2247023262722 22.2885768486786 -1.1756094292633964e-06 0 0 0
9974 1 2 0 83.84138048072624 23.077249428860238 -2.1858511720502776 0 0 0
9975 1 2 0 86.58139489878249 22.838142238758405 -2.245014330462427 0 0 0
7049 1 1 0 88.0653049399928 23.235847754761384 -1.647198516139746 0 0 0
13449 1 2 0 88.07466999122003 23.184351147857438 -3.072574378043781e-08 0 0 0
6948 1 1 0 90.51561163472309 18.309174914172026 -1.641742734638367 0 0 0