LAMMPS data file via write_data, version 2 Aug 2023, timestep = 108, units = metal

15492 atoms
2 atom types

6.105686099900912 198.4557269301491 xlo xhi
6.927610748265532 169.35591503549523 ylo yhi
-100 100 zlo zhi

Masses

1 28.085
2 15.999

Atoms # full

6604 1 1 0 6.415979878882523 9.112715587169378 -1.6494052852664884 0 0 0
9295 1 2 0 7.880648808299139 8.622112489138873 -2.2342215361040805 0 0 0
6618 1 1 0 9.153826179419372 7.757847541666962 -1.641572324853543 0 0 0
9315 1 2 0 10.542188810290604 8.463652721937983 -2.171551467113872 0 0 0
9292 1 2 0 6.117804720642617 10.635452284278797 -2.2354768404590284 0 0 0
6617 1 1 0 11.415378827279088 9.761135546494891 -1.646865407984527 0 0 0
9313 1 2 0 10.63604761258926 11.11280823172391 -2.239339314529695 0 0 0
6616 1 1 0 10.568541376115279 12.658647089428971 -1.6207450370932615 0 0 0
13073 1 2 0 9.079214942048454 7.7421031720132305 -1.6334503483527255e-06 0 0 0
13072 1 2 0 11.468625654396913 9.849942094490805 -2.600338307870792e-06 0 0 0
13071 1 2 0 10.288387444518186 12.550225657258194 -2.1809095215653992e-07 0 0 0
6819 1 1 0 14.314107076005326 8.73830209753203 -1.6422837991429344 0 0 0
9616 1 2 0 14.55304889108853 7.208370030138021 -2.218040859149528 0 0 0
9316 1 2 0 12.94820747043381 9.479779268801444 -2.2314240255100146 0 0 0
9615 1 2 0 15.65561614039842 9.509121007919928 -2.1870581274224157 0 0 0
6820 1 1 0 16.614092640811293 10.727193662717427 -1.6497545046972855 0 0 0
9617 1 2 0 15.894544930213888 12.070853283690884 -2.308503715085348 0 0 0
13274 1 2 0 14.227281443327179 8.72270362601601 -1.7991898096503873e-06 0 0 0
9626 1 2 0 19.975179724828557 8.381349113060862 -2.2182280829847656 0 0 0
6829 1 1 0 20.614082072581592 6.96512032445516 -1.6466660311568395 0 0 0
6825 1 1 0 19.586854198247195 9.882377118134988 -1.6461000856841792 0 0 0
9618 1 2 0 18.131767333332867 10.412689464332743 -2.2364427935170887 0 0 0
9625 1 2 0 20.770766877645734 10.867360467817328 -2.2234294331166575 0 0 0
6826 1 1 0 21.666840256942685 12.118590477362728 -1.6452786372908477 0 0 0
13284 1 2 0 20.648216505408573 6.946232439920584 -8.638689119137617e-07 0 0 0
9637 1 2 0 24.954185064943314 7.460665680307495 -2.185732144908788 0 0 0
6832 1 1 0 25.956231524082312 8.693251796484068 -1.64763150242358 0 0 0
9638 1 2 0 27.55344489232713 8.713462226548454 -2.166767032886577 0 0 0
6831 1 1 0 24.703893756754926 11.496828543805755 -1.6425411193619273 0 0 0
9635 1 2 0 25.226907946519106 10.055716584560734 -2.2473373312274822 0 0 0
9628 1 2 0 23.206227186732303 11.909549591895207 -2.231203039590325 0 0 0
9636 1 2 0 25.84832743298975 12.598736352746542 -2.1241572046776533 0 0 0
6841 1 1 0 29.13533566910787 8.437608727676539 -1.6469096105423464 0 0 0
9649 1 2 0 30.25994912892966 9.661367286068272 -2.1462557353783906 0 0 0
6839 1 1 0 31.432818699612586 10.840136598147 -1.6437806683895901 0 0 0
9650 1 2 0 32.9749456018027 10.422782285154192 -2.144102495572781 0 0 0
9646 1 2 0 31.359445783260817 12.465326919462425 -2.152826794274218 0 0 0
13294 1 2 0 31.31069469103222 10.8391406284721 -2.491444161877308e-06 0 0 0
9656 1 2 0 34.94046911286996 8.702977638440142 -2.173453738109497 0 0 0
6853 1 1 0 34.95161471224619 7.103480292797063 -1.6474672200603684 0 1 0
6843 1 1 0 34.56867747605476 10.274398043145622 -1.6459100639190787 0 0 0
9653 1 2 0 35.57008109543197 11.571487241692592 -2.1541830249412612 0 0 0
6847 1 1 0 39.769531702019414 12.101437828684615 -1.6479236746284391 0 0 0
13298 1 2 0 34.65090559390354 10.286171353063395 -2.975656442804547e-06 0 0 0
9655 1 2 0 38.2028134053945 12.13060755240129 -2.1869943410421944 0 0 0
9662 1 2 0 42.21310538871038 8.409763735566198 -2.234581409164382 0 0 0
9660 1 2 0 40.41167549144592 10.654602065361411 -2.195215970284939 0 0 0
6846 1 1 0 41.78529876022032 9.89776814187289 -1.635431830393978 0 0 0
9661 1 2 0 42.97960723537898 10.928551705239103 -2.132053104505953 0 0 0
6848 1 1 0 44.54782260682111 10.89197749054908 -1.6341379738238277 0 0 0
9665 1 2 0 45.34272221710898 9.601821703995268 -2.275750512208312 0 0 0
9664 1 2 0 45.21457545067444 12.29990732814985 -2.151796860749481 0 0 0
6857 1 1 0 46.62818927302654 8.778751784629389 -1.643827022840632 0 0 0
9679 1 2 0 47.99313793898892 9.431512815395573 -2.2604234246168216 0 0 0
9682 1 2 0 50.60637691529532 8.784214053229034 -2.2740432392499748 0 0 0
6858 1 1 0 49.475365292997076 9.772810932377823 -1.6473693550608834 0 0 0
9681 1 2 0 49.890698522770855 11.229479334656448 -2.2743000252814625 0 0 0
6859 1 1 0 49.47931395734121 12.674191899375602 -1.637367426303748 0 0 0
9680 1 2 0 46.59646784466331 7.225415136559777 -2.166324923915267 0 0 0
13312 1 2 0 46.6085676037454 8.818835340896149 -3.045716367279706e-07 0 0 0
6862 1 1 0 51.59870142532219 7.64666366169697 -1.6455039462396703 0 0 0
9687 1 2 0 53.106560031334226 7.947995434293459 -2.222497349618514 0 0 0
6864 1 1 0 54.42798321111852 8.745703925732997 -1.6459685245354954 0 0 0
9692 1 2 0 55.74629282139532 7.976330554156709 -2.2385519915495893 0 0 0
9689 1 2 0 54.52662909758066 10.261624554623458 -2.278263924459973 0 0 0
6863 1 1 0 54.291002225632404 11.75702827464631 -1.650992337086126 0 0 0
13317 1 2 0 51.59860735268502 7.6321394538687395 -7.914942590111035e-07 0 0 0
9690 1 2 0 52.80669728161345 12.241649788886054 -2.181470943468812 0 0 0
9706 1 2 0 58.240092943274824 7.1297946418880995 -2.214435518729147 0 0 0
6873 1 1 0 59.36117261424296 8.196064815650645 -1.6501921231059455 0 0 0
9707 1 2 0 60.82724227541512 7.726322543642258 -2.224160909356777 0 0 0
6868 1 1 0 59.07801193934423 11.136336184377567 -1.575083415452717 0 0 0
9699 1 2 0 59.147700489566965 9.681554614659458 -2.3278668163710794 0 0 0
9697 1 2 0 57.52510729702435 11.617592459392187 -1.7332293902102265 0 0 0
9698 1 2 0 60.07632954739317 12.298137014514593 -2.2069934463470307 0 0 0
13323 1 2 0 59.511271546327855 10.928520375490452 -6.509886019766188e-08 0 0 0
6870 1 1 0 61.610792928858366 12.567062762617853 -1.6418666347509587 0 0 0
9702 1 2 0 62.491804955888405 11.310615535399643 -2.2228911130617903 0 0 0
6876 1 1 0 64.38393684588111 7.820376451224686 -1.6418646118833853 0 0 0
9712 1 2 0 65.84874633023564 7.307249960235181 -2.1537502134821818 0 0 0
6875 1 1 0 63.93409047958096 10.77916957171599 -1.6439178834465757 0 0 0
9709 1 2 0 64.14822824951506 9.296819140834875 -2.309279623228432 0 0 0
9718 1 2 0 67.59958730343625 11.166447063961797 -2.20765714499356 0 0 0
9710 1 2 0 65.05987254655093 11.829802782142288 -2.2031599274859683 0 0 0
13331 1 2 0 64.33432951842467 7.893397584257395 -4.3255331439784227e-07 0 0 0
6880 1 1 0 66.53228669341385 12.28837095147267 -1.6431593466426222 0 0 0
13335 1 2 0 66.62656597648585 12.308116099328391 -3.870741794257964e-07 0 0 0
6884 1 1 0 69.32321706933038 7.48357954931385 -1.6481169372601725 0 0 0
9739 1 2 0 73.39685696037623 7.059613843610415 -2.214992329808908 0 0 0
6883 1 1 0 69.05867237112523 10.623448927643636 -1.6447529711719526 0 0 0
9722 1 2 0 69.23988016788229 9.065851678539358 -2.2161192827034797 0 0 0
9723 1 2 0 70.13977271910029 11.788608895055201 -2.189487758705959 0 0 0
13339 1 2 0 69.26512256705712 7.541196295891239 -3.6908350914433875e-07 0 0 0
13338 1 2 0 69.14267818144546 10.564653456680869 -6.217520667200671e-09 0 0 0
6894 1 1 0 74.47900505414881 8.185805636827025 -1.651416999468063 0 0 0
9741 1 2 0 75.97908957451608 7.723077082896419 -2.247468366868326 0 0 0
6909 1 1 0 77.47711848412753 7.7343031632739105 -1.5257649242834888 0 0 0
9748 1 2 0 78.07993856034199 9.257422316283623 -1.4951626235621769 0 0 0
9737 1 2 0 74.05176375382374 9.744054777503134 -2.123062308064756 0 0 0
6892 1 1 0 74.7673612202073 11.193194295153893 -1.6499206995555782 0 0 0
9738 1 2 0 76.27333582584426 11.10041682735588 -2.3242706917082363 0 0 0
6898 1 1 0 77.67520416143839 10.832385199515542 -1.5291738308566967 0 0 0
9744 1 2 0 78.87082540925527 11.610566572003108 -2.3197289618668706 0 0 0
9735 1 2 0 74.27532076160021 12.678251086176905 -2.208362443471103 0 0 0
13349 1 2 0 74.52889918855493 8.142842870153444 -1.0464405228265494e-07 0 0 0
13364 1 2 0 77.30493032495711 7.117398358430454 -2.2313485635180026e-07 0 0 0
13353 1 2 0 77.52966513369311 11.447821362469512 -3.9497228179277346e-07 0 0 0
9760 1 2 0 83.85710394358686 7.8687342112490795 -2.247315651778845 0 0 0
6906 1 1 0 84.3952287596693 9.296669376936975 -1.6453354619340768 0 0 0
6903 1 1 0 82.82121008054074 11.835270352093348 -1.643853694965673 0 0 0
9756 1 2 0 83.28874115334648 10.374233981655191 -2.219778494433835 0 0 0
9745 1 2 0 81.37159828359677 12.225065929582899 -2.2919980557444815 0 0 0
6896 1 1 0 79.9290888784733 12.667083609023722 -1.6482601316520313 0 0 0
13351 1 2 0 80.03520259947679 12.651093082197944 -2.3503065227139784e-07 0 0 0
13358 1 2 0 82.79300200514577 11.835307962688999 -2.0281192377614965e-07 0 0 0
6915 1 1 0 89.57798636616324 8.23876758045845 -1.6464350603554865 0 0 0
9770 1 2 0 88.5878929133494 9.435715750899586 -2.217469228029889 0 0 0
9761 1 2 0 85.91098964522386 9.626564603531179 -2.2176893275213745 0 0 0
6912 1 1 0 87.30819165872447 10.311730262773617 -1.647390120827901 0 0 0
9769 1 2 0 87.46065738469146 11.853100367174974 -2.2361644214380605 0 0 0
13367 1 2 0 87.30013651136458 10.31914169545814 -9.139598187075235e-08 0 0 0
6918 1 1 0 92.65111955406387 8.714887132683153 -1.6472335625102141 0 0 0
9773 1 2 0 91.10557277833014 8.512837153621753 -2.2173194333745827 0 0 0
9780 1 2 0 93.55332202312893 7.416663273929636 -2.1960535160547425 0 0 0
9776 1 2 0 93.19117841177521 10.200138868640064 -2.1931412083390738 0 0 0
6916 1 1 0 93.79245083107375 11.664165183299474 -1.6482143958376276 0 0 0
9777 1 2 0 95.35653123096994 11.78423909515057 -2.2010666495589937 0 0 0
13371 1 2 0 93.76308609557863 11.666144895243482 -3.253123556390195e-08 0 0 0
6926 1 1 0 98.4656312050092 9.045670011519803 -1.645792951809761 0 0 0
9791 1 2 0 97.72015137750763 7.691477958298311 -2.215265653323154 0 0 0
6503 1 1 0 101.50828267368057 8.681593625896735 -1.6459961924364908 0 0 0
9125 1 2 0 100.00461412323408 8.975141694090006 -2.2459687059521762 0 0 0
9124 1 2 0 102.14820718828767 7.257812196340986 -2.180691432393001 0 0 0
6922 1 1 0 96.91970816232806 11.734625098270453 -1.6459976028444616 0 0 0
9786 1 2 0 97.67788469823358 10.37714146039069 -2.229838222310511 0 0 0
13381 1 2 0 98.46862405133835 9.084477709807702 -7.290123471363903e-07 0 0 0
13377 1 2 0 96.91824619422071 11.714580243286896 -1.9079922847901025e-07 0 0 0
9115 1 2 0 101.54202999341575 12.312901043810118 -2.1259639859307806 0 0 0
12958 1 2 0 101.44871077868946 8.677310943319899 -3.6503703809550074e-08 0 0 0
9293 1 2 0 6.966026687990445 13.248822099582211 -2.213210751577658 0 0 0
9309 1 2 0 9.469399156852969 13.754734010773735 -2.2224964887940537 0 0 0
6613 1 1 0 8.02781827178699 14.38213637101115 -1.646860691368041 0 0 0
9308 1 2 0 7.605198422794051 15.910076252151809 -2.1971092886533667 0 0 0
6615 1 1 0 7.167908854679442 17.443556899024813 -1.6463087446419458 0 0 0
9312 1 2 0 8.324484054809892 18.519301090504626 -2.1753410832632785 0 0 0
9379 1 2 0 11.664473769055709 15.777044425440616 -2.0765162681874862 0 0 0
9377 1 2 0 11.011129854303356 18.514915049690668 -2.2280794821674634 0 0 0
13068 1 2 0 8.04438357740083 14.45353100143728 -1.380928381450959e-06 0 0 0
9314 1 2 0 12.081313807983276 13.193166476796065 -2.003232680610053 0 0 0
6821 1 1 0 15.57011086351043 13.504633865992009 -1.550575694879056 0 0 0
6658 1 1 0 12.79740911967458 14.616477434809868 -1.6157207849171438 0 0 0
9380 1 2 0 14.354362397352608 14.43630971992639 -2.2380802221901717 0 0 0
9619 1 2 0 17.05186264436165 14.221317994632244 -1.588413254344835 0 0 0
9631 1 2 0 16.462395102722986 16.64619476278797 -2.282930939152097 0 0 0
9381 1 2 0 13.601879494258508 17.26784795780732 -2.259680658783463 0 0 0
6933 1 1 0 15.12260114859798 17.384873399098737 -1.617161104397827 0 0 0
6659 1 1 0 12.049844517889339 17.350030495357153 -1.6322302010446568 0 0 0
9627 1 2 0 20.90679866952026 13.478778485949434 -2.20508727821282 0 0 0
6828 1 1 0 17.659629157704533 15.749764568572848 -1.5415729050577633 0 0 0
9629 1 2 0 19.174037025760505 15.655154357043843 -2.243560816600912 0 0 0
6827 1 1 0 20.5960358600667 15.010018260876336 -1.648744062227029 0 0 0
9630 1 2 0 21.887365084434006 15.90103132275105 -2.1955288469465923 0 0 0
6836 1 1 0 25.889066394362448 14.179437008153412 -1.6385149254798934 0 0 0
6837 1 1 0 23.445129875692388 15.972050026072345 -1.6447405210047192 0 0 0
9643 1 2 0 24.43786623201701 14.767840527139075 -2.1894006201901886 0 0 0
9644 1 2 0 27.239208604811783 14.918088706898164 -2.256670765686542 0 0 0
9645 1 2 0 24.124499565206428 17.320104964570294 -2.280132839484132 0 0 0
6840 1 1 0 28.656122906294183 15.540127753073579 -1.6473444054661597 0 0 0
6838 1 1 0 31.397539289966243 14.083644841658405 -1.6450724506597547 0 0 0
9647 1 2 0 29.937782785294736 14.652512520930161 -2.194314014709467 0 0 0
9648 1 2 0 32.57408194953368 15.214770857124247 -2.16279428302722 0 0 0
9651 1 2 0 28.82189577128296 17.084698140154885 -2.2220129875990766 0 0 0
6845 1 1 0 33.549607448528896 16.519415505538447 -1.644628020833733 0 0 0
6936 1 1 0 29.40754782204425 18.517965089805024 -1.6455312330459926 0 0 0
9659 1 2 0 33.24433173284552 18.103322244976003 -2.1379895739070083 0 0 0
6842 1 1 0 36.743867876394646 12.730502040133734 -1.644704843818571 0 0 0
9657 1 2 0 35.1187406072085 16.348831855622038 -2.173763955641829 0 0 0
9654 1 2 0 36.797703891666856 14.367513625403157 -2.1329990697530334 0 0 0
6844 1 1 0 36.65821002567418 16.005889025254046 -1.642755039306706 0 0 0
9658 1 2 0 37.72038258157925 17.292253633541556 -2.1356070015233755 0 0 0
9663 1 2 0 40.61720218147858 13.4339595656318 -2.1989627360901283 0 0 0
6849 1 1 0 44.71080007488779 13.793291501488964 -1.6436197730588549 0 0 0
6850 1 1 0 41.76102205538991 14.503784645071558 -1.6472233067282764 0 0 0
9668 1 2 0 41.50594622542175 16.045015869324548 -2.1950980702002405 0 0 0
9666 1 2 0 43.2385384424907 14.11454317530421 -2.2859242299487095 0 0 0
6937 1 1 0 41.727365612998376 17.595935276472066 -1.645763116282648 0 0 0
9808 1 2 0 40.33099198144371 18.35868202096108 -2.1571064593885834 0 0 0
9809 1 2 0 43.17051082241346 18.277843981433033 -2.217435277909465 0 0 0
13305 1 2 0 41.764484532126545 14.483490001767906 -1.284483205441707e-07 0 0 0
9667 1 2 0 45.88951146231692 14.817435328313055 -2.211661622085119 0 0 0
9683 1 2 0 47.94249891758285 13.061609361371712 -2.0885918362846714 0 0 0
9684 1 2 0 50.60570905284413 13.756271526625909 -2.191883102844139 0 0 0
6860 1 1 0 47.42343456690047 14.57515173527283 -1.6379226379566636 0 0 0
9685 1 2 0 48.565940266541965 15.539520734374687 -2.309546374153532 0 0 0
6939 1 1 0 49.58928981104013 16.64498004386124 -1.6326412142097635 0 0 0
9812 1 2 0 51.11347830367909 16.77688982312368 -2.2481111208531863 0 0 0
9811 1 2 0 48.84198781702989 18.01182060234706 -2.1220394742189903 0 0 0
9813 1 2 0 46.04370406018683 18.182648498758653 -2.112633896558745 0 0 0
6865 1 1 0 52.15796346625692 13.651826403282083 -1.638543901903477 0 0 0
9691 1 2 0 55.34732185229676 12.88274814912441 -2.2637870600966408 0 0 0
9693 1 2 0 53.02592908972181 14.944379433930239 -2.170182790894573 0 0 0
6944 1 1 0 52.63046939555963 16.465319836869504 -1.6482057147212328 0 0 0
9819 1 2 0 53.80409264589476 17.41686312339774 -2.31200651758267 0 0 0
13324 1 2 0 56.61546824719245 13.553383922115911 -2.7148052125393734e-08 0 0 0
6869 1 1 0 56.82554488315923 13.10099028802192 -1.5710635337063887 0 0 0
9700 1 2 0 57.76104164056227 14.225917889538882 -2.3159801191772997 0 0 0
6872 1 1 0 58.60326065791298 15.479265980767142 -1.6458018289570138 0 0 0
9703 1 2 0 60.11719087692453 15.623103821084595 -2.268758607189798 0 0 0
6871 1 1 0 61.62908745615823 15.460101497811742 -1.6453885682055545 0 0 0
9701 1 2 0 62.19910631051931 14.003336361010449 -2.202188972284901 0 0 0
9705 1 2 0 57.77428852920812 16.779248151272792 -2.1885948280782572 0 0 0
13326 1 2 0 61.6066251828328 15.511961948580968 -1.723143672853532e-07 0 0 0
6947 1 1 0 57.69685649482395 18.315149700281303 -1.6428913467021138 0 0 0
9704 1 2 0 62.57316208509717 16.684296431496165 -2.2092928249315005 0 0 0
9717 1 2 0 66.77609387913186 13.798774747783186 -2.265136818119491 0 0 0
9719 1 2 0 65.09216009935784 15.93519080035169 -2.262269016638876 0 0 0
6881 1 1 0 66.46476590700011 15.29240621898841 -1.6276830543027718 0 0 0
9720 1 2 0 67.68031484201987 16.344678707871807 -2.006005488934246 0 0 0
6882 1 1 0 64.07740454359056 17.085965965805002 -1.6487599603029275 0 0 0
6889 1 1 0 70.52646337156526 13.318177807198584 -1.6463484676159807 0 0 0
9733 1 2 0 71.99079946944958 13.76436253654829 -2.2322556265896316 0 0 0
9732 1 2 0 69.58984705769062 14.569562738907658 -2.2223910355966274 0 0 0
6890 1 1 0 69.26907079504831 16.084153108534316 -1.6222918774310342 0 0 0
9734 1 2 0 70.10247543137558 17.388903836986575 -2.230656185873983 0 0 0
6891 1 1 0 73.49670179001453 14.042749944286308 -1.643903127166705 0 0 0
9750 1 2 0 73.70583060420697 18.44677711731467 -2.184159741911458 0 0 0
9736 1 2 0 73.94839737684592 15.55929909045792 -2.1985783180417253 0 0 0
13346 1 2 0 73.58697928346399 14.087146412142008 -1.531877744638743e-08 0 0 0
9743 1 2 0 79.43137942186519 14.136872570447125 -2.1766816133562545 0 0 0
9746 1 2 0 78.5689084769259 16.604302576724923 -2.270664537463262 0 0 0
6899 1 1 0 74.47114133135257 17.057505943402166 -1.647947827129287 0 0 0
9749 1 2 0 76.00262382152705 17.206694869903014 -2.2515754627660938 0 0 0
6900 1 1 0 77.46019041559308 17.650466931938787 -1.646576570641641 0 0 0
13355 1 2 0 77.4285292620272 17.58581497144145 -5.147632496480316e-07 0 0 0
13354 1 2 0 74.40510992589134 17.036296544281136 -6.314059788578517e-08 0 0 0
6897 1 1 0 79.7473448353234 15.656218733942548 -1.641155367199381 0 0 0
13352 1 2 0 79.75473226987242 15.744954973151223 -1.2583127576669526e-07 0 0 0
9755 1 2 0 83.88785740408106 12.926648861228985 -2.233668205085319 0 0 0
9747 1 2 0 81.21407796149805 16.074260177584556 -2.252062921232202 0 0 0
6905 1 1 0 82.66668157459242 16.545870107334984 -1.644554745435526 0 0 0
9757 1 2 0 83.87214041030924 15.626113808588876 -2.26981830303426 0 0 0
6904 1 1 0 84.58085679228137 14.284311854895215 -1.6422890576164855 0 0 0
13360 1 2 0 82.65082228171583 16.466375753672583 -1.4260734386357214e-07 0 0 0
13359 1 2 0 84.53798481402974 14.310143953231943 -6.284902103147109e-07 0 0 0
9759 1 2 0 82.964526661777 18.076075360834267 -2.172979755042829 0 0 0
6913 1 1 0 87.39887720662023 13.395139750024814 -1.6440222065987158 0 0 0
9758 1 2 0 86.1093353093574 14.245169485900716 -2.212966769029928 0 0 0
9771 1 2 0 88.62538937445748 14.303503862384016 -2.2343255255752164 0 0 0
6919 1 1 0 89.51779948162225 15.556409478229133 -1.6472487810261762 0 0 0
9781 1 2 0 88.94371839618415 17.033630973308643 -2.193213254970313 0 0 0
9778 1 2 0 90.99541160139343 15.077375884444532 -2.2186243380282717 0 0 0
9775 1 2 0 92.92383965316489 12.991977340137502 -2.205860900841622 0 0 0
6917 1 1 0 92.43187200023664 14.492635566045358 -1.6402047200531533 0 0 0
9779 1 2 0 93.44600572908116 15.689188728771406 -2.157252242266278 0 0 0
6924 1 1 0 93.83233694457503 17.21578304544647 -1.6440768013977611 0 0 0
9788 1 2 0 95.3583524719984 17.320194112695223 -2.2449105997091143 0 0 0
13372 1 2 0 92.38384597874315 14.374152159551727 -3.375520308237882e-07 0 0 0
9789 1 2 0 92.95309946348117 18.51412635646965 -2.227275940765618 0 0 0
13379 1 2 0 93.76295708285515 17.289305867916454 -1.6505894500500977e-08 0 0 0
9785 1 2 0 97.74878820183648 13.054097962198968 -2.2064798478817083 0 0 0
6501 1 1 0 101.49394570998385 13.900524725559704 -1.6367885895284509 0 0 0
6923 1 1 0 98.4933276308931 14.42891491439464 -1.6498106928494414 0 0 0
9787 1 2 0 97.64487126297776 15.728030001222319 -2.2344609676795746 0 0 0
9121 1 2 0 100.0631933803524 14.511805849261625 -2.222102891416879 0 0 0
6925 1 1 0 96.86731036698626 17.06573005505354 -1.6412955594597785 0 0 0
13380 1 2 0 96.82675634527338 16.95902890869715 -1.6462623573432035e-07 0 0 0
9790 1 2 0 97.64944345523706 18.392018208049567 -2.1917610187746144 0 0 0
9300 1 2 0 101.97645063239298 18.324969483734332 -2.1645070696568545 0 0 0
13378 1 2 0 98.49781329569107 14.429519480824965 -3.424943373794018e-07 0 0 0
12956 1 2 0 101.47631343117918 14.082749882079973 1.7082245615276468e-09 0 0 0
6657 1 1 0 9.662172821911824 19.360644627187675 -1.648307760455648 0 0 0
9378 1 2 0 9.568544079323686 20.956997304861698 -2.170054917310891 0 0 0
9386 1 2 0 7.540758325102356 22.82860245877223 -2.1571696919825927 0 0 0
6664 1 1 0 9.11739048529305 22.50232670633373 -1.6488873597782656 0 0 0
13119 1 2 0 9.147261201060791 22.518918382003907 -1.8809491388693987e-06 0 0 0
9388 1 2 0 10.24465541484964 23.652905343417782 -2.19052207190981 0 0 0
9802 1 2 0 15.331736456144437 18.96371927311948 -1.9993833200244666 0 0 0
9841 1 2 0 16.26298943716424 21.276628553491975 -2.3714125964333754 0 0 0
6958 1 1 0 16.626601109713313 19.855428623580202 -1.6324091109281944 0 0 0
6996 1 1 0 16.076875031780954 22.70773526236635 -1.5936051370875126 0 0 0
13451 1 2 0 15.71668751301349 22.50004240418559 -3.713092471557658e-06 0 0 0
9897 1 2 0 14.842767056503705 23.515612637960118 -2.2869479071106795 0 0 0
13413 1 2 0 16.77133218634268 20.039322992413585 -3.5500534139545235e-06 0 0 0
9898 1 2 0 17.46669348972962 23.581449210135254 -1.7780967187376837 0 0 0
9840 1 2 0 18.030592848487085 19.107954241245377 -2.1638797890701 0 0 0
6959 1 1 0 19.36132186387444 19.940647066248058 -1.637097811893335 0 0 0
9838 1 2 0 20.83069416079016 19.474544154126534 -2.231065360213981 0 0 0
6957 1 1 0 22.084859740685626 20.3940278139499 -1.640066794026769 0 0 0
9842 1 2 0 19.108573195534714 21.447773806002427 -2.2577317164896256 0 0 0
6998 1 1 0 18.960846524358715 22.923291538426266 -1.5829888718828178 0 0 0
9839 1 2 0 21.921191428702407 21.973171530992364 -2.1125924819426185 0 0 0
13414 1 2 0 19.476082266516446 19.87131651093816 -3.782451311642271e-06 0 0 0
13412 1 2 0 22.175518248562117 20.287642600656838 -3.5316121311507514e-06 0 0 0
13453 1 2 0 19.381012441010622 22.77656846265172 -3.1321176194885632e-06 0 0 0
6963 1 1 0 22.96760379412036 23.166815866788415 -1.6328630147419696 0 0 0
9900 1 2 0 19.979223384735207 23.914640412110607 -2.357250646692257 0 0 0
6934 1 1 0 24.528159996032954 18.767019042139644 -1.6467239276201278 0 0 0
9804 1 2 0 23.483230549942316 19.859388823927336 -2.286906705210701 0 0 0
9803 1 2 0 25.998405913052448 19.180924600626003 -2.2302447991544305 0 0 0
6935 1 1 0 27.067731393176928 20.28485361806673 -1.6417623992345467 0 0 0
9805 1 2 0 28.512307380882277 19.778656082238058 -2.2010520047912174 0 0 0
9847 1 2 0 24.42472757543859 22.83055496334237 -2.289179555109802 0 0 0
9806 1 2 0 26.849820126778013 21.79838651138273 -2.241526425258241 0 0 0
6964 1 1 0 25.928789140532466 23.026933363152637 -1.6503135743171984 0 0 0
13389 1 2 0 24.528685021282474 18.72886960164898 -3.151007010638796e-06 0 0 0
13419 1 2 0 25.946825438130617 23.033515574926476 -3.69013797163804e-06 0 0 0
13418 1 2 0 23.08765112513874 23.15582079251121 -2.639666155735975e-06 0 0 0
13390 1 2 0 27.004759970700736 20.321174120101425 -3.6560378304491e-06 0 0 0
9807 1 2 0 30.866072844537147 18.90637483540701 -2.2761039542562975 0 0 0
6965 1 1 0 32.30231425366344 19.41125411354885 -1.6457075922866664 0 0 0
9850 1 2 0 32.55071765347604 21.003803821506967 -2.164166437495022 0 0 0
7002 1 1 0 32.72958035717253 22.616006169855947 -1.6488822218711157 0 0 0
9907 1 2 0 31.5155790115126 23.733170210003394 -2.161625389472939 0 0 0
9906 1 2 0 34.28124281477289 23.041432186352594 -2.157676287626876 0 0 0
6938 1 1 0 38.750454431242396 18.60400310327416 -1.645776040456326 0 0 0
9810 1 2 0 38.49354522753221 20.236608516389115 -2.127296133093571 0 0 0
9904 1 2 0 37.125682234965694 22.628061954043318 -2.1546957015690205 0 0 0
7001 1 1 0 38.56258954132411 21.877009375548656 -1.649724907739444 0 0 0
7003 1 1 0 35.803544261170636 23.55246878268142 -1.6459452788592959 0 0 0
9905 1 2 0 39.937958905452405 22.791755471592936 -2.1715390821400646 0 0 0
13393 1 2 0 38.64823517481055 18.596317927995166 -2.4614911678118263e-07 0 0 0
6940 1 1 0 44.61004029912802 18.940967480194935 -1.6423019244106318 0 0 0
9814 1 2 0 44.91526516295996 20.47117748409442 -2.23296096051299 0 0 0
7006 1 1 0 45.57851807433481 21.874927651586237 -1.632355274435274 0 0 0
13395 1 2 0 44.45940755963962 18.923565143805632 -8.015165867557216e-07 0 0 0
9912 1 2 0 44.60650344032393 22.99394212732486 -2.306044214551989 0 0 0
7008 1 1 0 41.044002779064925 23.979465913956403 -1.6177043212321183 0 0 0
6941 1 1 0 47.52225897724762 18.829755212077867 -1.6382448648870735 0 0 0
9815 1 2 0 47.95258175748911 20.278914544477924 -2.3099929494459617 0 0 0
9913 1 2 0 47.08309795550548 22.562810108295583 -1.9351896039102703 0 0 0
7009 1 1 0 48.46101441365689 21.696594965610906 -1.6133693514874627 0 0 0
9917 1 2 0 49.842267755267315 22.35881703919413 -2.2576378106387764 0 0 0
7012 1 1 0 51.31116098780759 22.8784428541726 -1.650458334193078 0 0 0
13396 1 2 0 47.45171036357203 18.939564984256688 -2.920738968467789e-07 0 0 0
6948 1 1 0 54.754730906837096 18.54359363269349 -1.566802671944078 0 0 0
9823 1 2 0 56.2373933495019 18.827305275427783 -2.245637805222588 0 0 0
9825 1 2 0 53.91371032421848 19.93054015813805 -1.696103978317798 0 0 0
9860 1 2 0 52.54330157839235 21.957855947425898 -2.2608046323903195 0 0 0
6971 1 1 0 53.98404223782273 21.554666689486236 -1.5633619346123693 0 0 0
9859 1 2 0 55.36429681239335 22.163257782670616 -2.263377322751093 0 0 0
6972 1 1 0 56.873103808009475 22.50378662306021 -1.6476456395287138 0 0 0
13426 1 2 0 53.976143745649416 22.089748781387506 -6.421628810597221e-07 0 0 0
9824 1 2 0 59.02832680950319 19.1441763461074 -2.181110989062805 0 0 0
6970 1 1 0 59.35296122944838 20.682419625344387 -1.6428708767941735 0 0 0
9858 1 2 0 60.79952277933702 21.202044669363463 -2.2538182481115534 0 0 0
9857 1 2 0 58.04011067976858 21.498054213843023 -2.2253533825462597 0 0 0
6974 1 1 0 62.205491094959775 21.8529202573093 -1.6476342537558197 0 0 0
9864 1 2 0 62.334481618670935 23.39795398090623 -2.2112125709648827 0 0 0
9861 1 2 0 57.38370662407879 23.950620684444498 -2.216767561130933 0 0 0
13429 1 2 0 62.18916635529392 21.82247009051331 -2.667067286179353e-07 0 0 0
13425 1 2 0 59.43637535467003 20.796531944196705 -1.4280409782109047e-07 0 0 0
9721 1 2 0 64.48531280134827 18.559506548491353 -2.248072007148247 0 0 0
9862 1 2 0 63.510480337329476 21.01903331271375 -2.2236645753265387 0 0 0
6973 1 1 0 64.73803457103466 20.075405565412762 -1.646938650656277 0 0 0
9863 1 2 0 66.1923676632486 20.606386582017393 -2.225049547422616 0 0 0
6978 1 1 0 67.71356434324665 20.91009802633081 -1.6457096022114133 0 0 0
9870 1 2 0 68.21030796213653 22.380302290448256 -2.211845244376306 0 0 0
13433 1 2 0 67.69629349718014 20.90664016321496 -4.195684822265789e-07 0 0 0
7043 1 1 0 68.38456279168837 23.923601519892845 -1.6459319147877036 0 0 0
13498 1 2 0 68.38738932892664 23.963691179048784 -2.5324056232468725e-08 0 0 0
9827 1 2 0 68.75435696302746 19.75656175029189 -2.217283719607711 0 0 0
6949 1 1 0 70.08850190601527 18.95692002978559 -1.6491021984396943 0 0 0
9826 1 2 0 71.42914240748586 19.770942179648188 -2.180155452711943 0 0 0
6950 1 1 0 72.99896206638995 19.86842850621553 -1.644124788427422 0 0 0
9828 1 2 0 73.63275727321844 21.33263964903499 -2.186789331659666 0 0 0
7014 1 1 0 73.8013446991145 22.924084286862573 -1.6487272891648672 0 0 0
9925 1 2 0 72.51639457353751 23.852674843325378 -2.1858685565759712 0 0 0
9751 1 2 0 77.84850908020866 19.17748423760695 -2.1671429352136293 0 0 0
6980 1 1 0 79.17869279185878 20.00692405153722 -1.6405465711329017 0 0 0
9872 1 2 0 79.19409298121738 21.520174379256854 -2.2724016977146086 0 0 0
7013 1 1 0 79.32239910220832 23.044661393252724 -1.6483193329779584 0 0 0
9924 1 2 0 75.22478717669308 23.638077260808526 -2.191342026266718 0 0 0
9922 1 2 0 77.97351427231352 23.81032235702636 -2.2157220574830476 0 0 0
13468 1 2 0 79.33359352026234 23.05513047154072 -6.210538241791731e-07 0 0 0
13435 1 2 0 79.15921548371198 20.094775868165385 -1.4670719726612832e-07 0 0 0
9832 1 2 0 80.51880518769133 19.19226818913822 -2.1731766692446164 0 0 0
6952 1 1 0 82.07276437104308 19.353754337985205 -1.6402473175234014 0 0 0
9831 1 2 0 82.7382768566641 20.71295094444024 -2.26139421996895 0 0 0
9834 1 2 0 83.47763610465692 23.183303803937175 -2.17520377431423 0 0 0
6953 1 1 0 83.93309491551148 21.674472040768613 -1.6470954065778953 0 0 0
9923 1 2 0 80.73276635965094 23.717533282662455 -2.2081117213921795 0 0 0
7016 1 1 0 82.23793503448633 24.16293413111999 -1.646102151117703 0 0 0
13408 1 2 0 83.98766596306211 21.67878545952593 -4.4746183198622135e-07 0 0 0
6951 1 1 0 88.95180302936268 18.620566156586953 -1.6441761601585227 0 0 0
9833 1 2 0 85.35906829121332 21.049049252261685 -2.2135293205851228 0 0 0
9829 1 2 0 87.72434239107659 19.62880606532979 -2.1997505690076533 0 0 0
6954 1 1 0 86.92285898363689 20.998563803630596 -1.646585513867197 0 0 0
9830 1 2 0 90.36878993973058 19.276606440930912 -2.1821266668978634 0 0 0
9835 1 2 0 87.48702036000144 22.469670003770908 -2.1803350256545055 0 0 0
9885 1 2 0 90.00431329521041 22.913808834429624 -2.1955424543728808 0 0 0
7017 1 1 0 88.59568482237349 23.57428415595768 -1.6423009339418826 0 0 0
6955 1 1 0 91.88474312177387 19.657996589331194 -1.6455746979234265 0 0 0
9836 1 2 0 92.16213513188548 21.216138759342606 -2.1968261713131776 0 0 0
6988 1 1 0 91.54133814358447 22.66659269115691 -1.6450395501645168 0 0 0
9884 1 2 0 92.36332525952434 23.973292179903787 -2.2374385466148055 0 0 0
9886 1 2 0 96.21673357999046 23.873064307030543 -2.2422152749490216 0 0 0
13410 1 2 0 91.95648136823814 19.645514893188466 -3.918158804015994e-07 0 0 0
6989 1 1 0 96.85260901881534 22.515522387678843 -1.5080327087503829 0 0 0
9837 1 2 0 96.90088078341122 20.999742070237698 -2.2357887073803986 0 0 0
6956 1 1 0 98.04080675126048 19.891797944680476 -1.6535082492118047 0 0 0
9323 1 2 0 99.59610298722004 19.96551372652349 -2.249270863114257 0 0 0