LAMMPS data file via write_data, version 2 Aug 2023, timestep = 132, units = metal

15744 atoms
2 atom types

6.507479524977474 199.57833215078938 xlo xhi
6.879651525095951 170.73606870110027 ylo yhi
-100 100 zlo zhi

Masses

1 28.085
2 15.999

Atoms # full

9450 1 2 0 10.925039921106512 8.319406187183148 -2.2053665662161186 0 0 0
9441 1 2 0 7.78240308421685 11.112489665212825 -2.2125671475464332 0 0 0
9444 1 2 0 10.507899301491708 10.904982443513095 -2.211934911461091 0 0 0
6712 1 1 0 9.208657467148837 11.76470075344083 -1.6477218019810933 0 0 0
6716 1 1 0 11.5572977364097 9.751860890654157 -1.6474952785379828 0 0 0
13276 1 2 0 11.598421917369494 9.744912921728796 -4.7194388951209627e-07 0 0 0
6874 1 1 0 17.048006880929403 8.691413028035086 -1.648046788575083 0 0 0
9688 1 2 0 16.697132207453386 7.158861972779564 -2.2146974214304795 0 0 0
9451 1 2 0 13.1021449100577 10.064827104441191 -2.205037239684503 0 0 0
6872 1 1 0 14.57477751182622 10.636019070257696 -1.6485273388048673 0 0 0
9686 1 2 0 15.833004398990559 9.693875295445842 -2.202723842047714 0 0 0
9685 1 2 0 14.836733662530396 12.179706631806132 -2.215302646616147 0 0 0
13432 1 2 0 14.563544607686172 10.625673961452655 -3.1854613510341345e-06 0 0 0
9689 1 2 0 18.554503262021093 9.203932149825832 -2.1801550063114643 0 0 0
6883 1 1 0 22.426736022947498 7.588314937773777 -1.6463659583888333 0 0 0
9699 1 2 0 21.257399260240728 8.68399707725655 -2.182247762531616 0 0 0
6880 1 1 0 20.053301568940643 9.753824786377672 -1.6501376632762967 0 0 0
9698 1 2 0 20.290494943144854 11.346186420509861 -2.185768256293063 0 0 0
9703 1 2 0 23.946053552728266 8.035923646244742 -2.1779831149630176 0 0 0
6886 1 1 0 25.523899087258023 8.134263269714133 -1.651355461823306 0 0 0
9710 1 2 0 26.529562819986342 6.933253648372484 -2.2278995126180847 0 0 0
9706 1 2 0 26.141940467593766 9.545739326060731 -2.2728146798020368 0 0 0
6884 1 1 0 26.45706432366594 11.033863823867403 -1.6412577165829783 0 0 0
9707 1 2 0 27.85445804444585 11.67021685238314 -2.2564831942082377 0 0 0
13444 1 2 0 26.533989705774673 10.887794182062894 -2.7029616195300055e-06 0 0 0
9705 1 2 0 25.266781862474225 12.090674979404575 -2.1017850091147348 0 0 0
13446 1 2 0 25.541343693790015 8.11640263575705 -1.1030835673471834e-06 0 0 0
6891 1 1 0 29.053284801565493 12.611200812601814 -1.6408451907587418 0 0 0
13451 1 2 0 28.99113198448146 12.512760549036722 -3.884938293938555e-06 0 0 0
9726 1 2 0 32.966819050200144 7.541560789370664 -2.296283402918804 0 0 0
6896 1 1 0 33.22036496897329 9.016519586814189 -1.6429239771611863 0 0 0
9724 1 2 0 31.926784212904344 9.910754091034859 -2.145211786450244 0 0 0
6895 1 1 0 31.7810633887421 11.468344122328892 -1.6356795742277646 0 0 0
9727 1 2 0 34.54984377802247 9.762805619906192 -2.296273920323005 0 0 0
9718 1 2 0 30.418415259815998 12.021801094518542 -2.3270845503499147 0 0 0
13456 1 2 0 33.378825384644124 8.869718494820711 -2.4796343439817558e-06 0 0 0
13455 1 2 0 31.59561758343596 11.451200809090126 -4.385400883855632e-06 0 0 0
9725 1 2 0 33.07903604315705 12.404133418133243 -2.124622177765091 0 0 0
6912 1 1 0 38.128580497393465 7.134577915584718 -1.653379054517567 0 0 0
9745 1 2 0 38.67927482148705 8.520812921835388 -2.3917950423575243 0 0 0
6905 1 1 0 35.58458789396584 10.770110112248043 -1.5014481586829596 0 0 0
9741 1 2 0 36.893140211506335 9.837354272243214 -1.2857127969429092 0 0 0
6907 1 1 0 38.50754713528456 9.880980905977113 -1.4882421067933602 0 0 0
9742 1 2 0 39.169736487400854 11.224774009497718 -2.18522648485591 0 0 0
9739 1 2 0 36.160800459405394 12.064782284126068 -2.381409230913849 0 0 0
9751 1 2 0 41.31318858155166 8.21647817730486 -2.2838603080935824 0 0 0
6911 1 1 0 42.337577496104224 9.340447997884537 -1.645796550396735 0 0 0
9752 1 2 0 43.81938480418846 9.060435441060475 -2.2836995154543307 0 0 0
6916 1 1 0 45.319852807140016 8.88549934872259 -1.6491259046922944 0 0 0
9760 1 2 0 45.959922935772745 7.529941241397006 -2.29552073504788 0 0 0
6906 1 1 0 40.63847920374804 11.789817739614463 -1.6358077445801973 0 0 0
9744 1 2 0 41.85788530733656 10.822503054421276 -2.1883577619555252 0 0 0
13471 1 2 0 42.42454200916388 9.32120087821567 -8.789714560101565e-07 0 0 0
13476 1 2 0 45.317520509050084 8.851309775357015 -3.7022614936106808e-06 0 0 0
13473 1 2 0 40.967463234814154 6.887803851410863 -3.618703606498626e-06 0 1 0
9756 1 2 0 45.27723234436772 12.569397032722826 -2.2433281546284785 0 0 0
9757 1 2 0 46.27426649877423 10.08914327416056 -2.234763250305312 0 0 0
9893 1 2 0 49.54408419054196 7.864300558635437 -2.2416554677900744 0 0 0
6999 1 1 0 50.4948051367304 9.08615253094612 -1.6460277004426278 0 0 0
6914 1 1 0 46.467849830974885 11.604854912295808 -1.6443838744039212 0 0 0
9888 1 2 0 50.055496714061825 10.55938644799463 -2.2592987960673336 0 0 0
9758 1 2 0 47.898435865958426 12.159539444625995 -2.214914598547842 0 0 0
6995 1 1 0 49.42950474957383 11.963655540344215 -1.6469993308715256 0 0 0
9779 1 2 0 52.011170751263904 8.726079603001983 -2.1806613700134245 0 0 0
9778 1 2 0 54.55110766542704 8.000381147761683 -2.242744971145655 0 0 0
6926 1 1 0 53.51104865970632 9.137100747491681 -1.6444963711533092 0 0 0
9768 1 2 0 53.84692379271841 10.632798631594154 -2.2504868099355013 0 0 0
6920 1 1 0 54.69587903069083 11.911063180969364 -1.6482258216055412 0 0 0
9764 1 2 0 56.22038065308798 11.719023562893126 -2.224090193723124 0 0 0
9776 1 2 0 58.282201413566526 7.932875394569915 -2.2207246020637483 0 0 0
6925 1 1 0 59.155129126732554 9.215999554890114 -1.6472576817866034 0 0 0
9777 1 2 0 60.663249090676786 8.97218694186467 -2.241278265473338 0 0 0
6931 1 1 0 62.19143030954861 8.986028927107938 -1.6469036635599197 0 0 0
9787 1 2 0 62.88425395773465 7.603190987350089 -2.2361325443538966 0 0 0
9766 1 2 0 58.62070137198768 10.66570652453728 -2.241233632979683 0 0 0
9784 1 2 0 62.83610180108981 10.388680321291423 -2.233280337472655 0 0 0
6919 1 1 0 57.74142322660264 11.937411611776366 -1.646563418058317 0 0 0
13491 1 2 0 62.250759766613236 8.98215632356612 -3.696665673662524e-07 0 0 0
13479 1 2 0 57.80484914242844 11.93827067937571 -9.484049428600485e-07 0 0 0
9798 1 2 0 67.5204475280706 7.69967426569428 -2.2437931139381706 0 0 0
6938 1 1 0 68.14773728680933 9.110328355440299 -1.6421991728771224 0 0 0
9792 1 2 0 67.50385527873392 10.513881796698104 -2.2470880663175237 0 0 0
6929 1 1 0 63.58539310582032 11.739138349624065 -1.6469085902589102 0 0 0
9785 1 2 0 65.10735208274475 11.587878673981356 -2.238610819054588 0 0 0
6934 1 1 0 66.62273837812855 11.789678815270438 -1.646682631950249 0 0 0
13494 1 2 0 66.69646809119276 11.765496419688418 -9.202599384895755e-07 0 0 0
9799 1 2 0 69.70903840832754 9.10691161444936 -2.1580899284564574 0 0 0
6943 1 1 0 71.07073836734305 8.32877226821684 -1.641443664551952 0 0 0
9804 1 2 0 72.24938682151117 9.369898528414481 -2.1874482529558508 0 0 0
6941 1 1 0 72.54015903991338 10.922427049215543 -1.6511058423474139 0 0 0
9805 1 2 0 74.03351494924149 11.327622610553473 -2.2357131376815707 0 0 0
9803 1 2 0 71.45802608228668 12.061214261443276 -2.2223622890774384 0 0 0
9817 1 2 0 76.66337784497932 6.949861975543619 -2.212284816763113 0 0 0
6949 1 1 0 77.17530749022214 8.454681120005695 -1.646580736236092 0 0 0
9818 1 2 0 78.68192487266957 9.036882123346839 -2.160443749253448 0 0 0
6944 1 1 0 75.55637677797955 11.08183596530361 -1.6469911090731026 0 0 0
9809 1 2 0 76.08428538628095 9.593749603770801 -2.182932160990698 0 0 0
6955 1 1 0 79.57972134462086 10.365621222693488 -1.647043724481419 0 0 0
9811 1 2 0 79.0126395362517 11.83279726336245 -2.189098870813034 0 0 0
13504 1 2 0 75.57393331749451 11.050600844890566 -5.229827661956976e-08 0 0 0
9808 1 2 0 76.43124299838257 12.397244577431906 -2.175652752756175 0 0 0
13509 1 2 0 77.22007506680481 8.365861900592163 -2.8445646273255716e-07 0 0 0
6963 1 1 0 84.3035589253527 8.022304540660464 -1.645954940893744 0 0 0
9839 1 2 0 85.88311372047943 8.123118686681616 -2.1744739503145603 0 0 0
9827 1 2 0 81.13699930498059 10.362428610885805 -2.2250513073782434 0 0 0
6957 1 1 0 82.66581922608357 10.672253881796816 -1.6498012378910734 0 0 0
9831 1 2 0 83.54266835287332 9.378527476214266 -2.2162353888317554 0 0 0
9828 1 2 0 83.3095062979072 12.124305016695345 -2.203132638040033 0 0 0
13517 1 2 0 82.68165346035116 10.708004467967491 -4.244755449452146e-07 0 0 0
9840 1 2 0 88.55700082213401 8.537160241039103 -2.253769944605247 0 0 0
6962 1 1 0 87.12822637793488 9.09108464053539 -1.647486785134543 0 0 0
6969 1 1 0 89.89566573578682 7.791388901471488 -1.6482493200491777 0 0 0
9849 1 2 0 91.30275511152139 8.334602950004156 -2.2979611336755528 0 0 0
9837 1 2 0 86.99037452297615 10.627254599379743 -2.2377060714782604 0 0 0
6961 1 1 0 87.21788037675233 12.151777529550207 -1.6462088459526762 0 0 0
13529 1 2 0 89.87465857759857 7.877260210373654 -3.9940062076649606e-07 0 0 0
13522 1 2 0 87.1379045961144 9.110507819058455 -1.7966428095708944e-08 0 0 0
6968 1 1 0 92.45286407337775 9.292625751962632 -1.635955822242136 0 0 0
9850 1 2 0 93.95882758236516 8.969299156750502 -2.2326915587989404 0 0 0
6978 1 1 0 95.07266840074546 7.889853316865512 -1.6478020068353076 0 0 0
9863 1 2 0 96.53738261507277 8.310613369226594 -2.277586326693908 0 0 0
9847 1 2 0 91.91611989467222 10.774837517148312 -2.0852666347303153 0 0 0
6967 1 1 0 92.47211171136506 12.246531011669646 -1.630766219687889 0 0 0
9848 1 2 0 94.00251257358109 12.307957366914035 -2.2511923134248013 0 0 0
9858 1 2 0 96.73670868623704 12.26473341054959 -2.2555685896625803 0 0 0
13527 1 2 0 92.5557390720098 12.463781708843907 -9.535718084754061e-08 0 0 0
6977 1 1 0 98.00013585892047 8.73346308717248 -1.6467240241178045 0 0 0
6982 1 1 0 100.58514512084247 7.17764354469643 -1.6466949177082186 0 0 0
9864 1 2 0 99.13161468544233 7.691245040148205 -2.2369623125342604 0 0 0
9305 1 2 0 101.79846355562758 8.123032368516705 -2.239749482426012 0 0 0
9862 1 2 0 98.42120334628343 10.226937958183987 -2.1966955746855072 0 0 0
6976 1 1 0 98.19056927863413 11.759717129115842 -1.6458059562525675 0 0 0
13537 1 2 0 97.95514315261417 8.707037189289712 -1.9728560573262204e-08 0 0 0
9303 1 2 0 102.17157817519724 12.377720959403778 -2.2267502688196465 0 0 0
9456 1 2 0 99.4509760792064 12.646305312105321 -2.239867662099139 0 0 0
9443 1 2 0 9.422806134000432 13.307264206395534 -2.2202199516268206 0 0 0
9447 1 2 0 8.61902636520173 15.84444570619563 -2.236139437942037 0 0 0
6715 1 1 0 9.776032019771808 14.823577972012519 -1.6479336952954229 0 0 0
9449 1 2 0 11.2151468843215 15.407190506553672 -2.2243190703056146 0 0 0
6714 1 1 0 7.368671293148129 16.740416314564285 -1.6471318094565786 0 0 0
13275 1 2 0 9.789706297253739 14.801996679701624 -1.1911811433754296e-06 0 0 0
13274 1 2 0 7.374597439379583 16.740513572583996 7.853219564776647e-08 0 0 0
9448 1 2 0 7.478689276145027 18.280272908227015 -2.232136518146677 0 0 0
6873 1 1 0 14.992525797246069 13.733868418759902 -1.647265297097397 0 0 0
6773 1 1 0 12.720796845803086 15.799212725202313 -1.6475989862405886 0 0 0
9538 1 2 0 13.71868190490689 14.615286582561891 -2.2205936403161948 0 0 0
6882 1 1 0 17.836689907633023 14.931228274698729 -1.6473462805854127 0 0 0
9687 1 2 0 16.339521779382 14.512002095190525 -2.2215083283982704 0 0 0
9537 1 2 0 13.259305387211572 17.270381348507627 -2.2102383073151066 0 0 0
13333 1 2 0 12.700737558679764 15.821657947769872 -3.15988518343357e-06 0 0 0
13442 1 2 0 17.840938216689384 15.02244880190787 -2.7810631858612247e-06 0 0 0
13433 1 2 0 15.018238971243397 13.697588109541838 -3.093118194404333e-06 0 0 0
6881 1 1 0 20.192048436035474 12.943796670803737 -1.6436570435603524 0 0 0
9700 1 2 0 18.783834242780536 13.663863368126515 -2.155643948195938 0 0 0
9701 1 2 0 21.32032290562771 14.034118458675735 -2.220145174679601 0 0 0
9702 1 2 0 18.30866729312706 16.437719099156062 -2.2330643379738997 0 0 0
6887 1 1 0 22.530447030204048 15.027634060401132 -1.6516350712114913 0 0 0
9711 1 2 0 22.686337291833617 16.58664387857167 -2.2476904363136603 0 0 0
6983 1 1 0 18.284755370966653 17.996544988124068 -1.6168975784505746 0 0 0
6988 1 1 0 23.037190244090088 18.04455494805342 -1.5003962342559147 0 0 0
13543 1 2 0 18.64439920126627 17.879625428205074 -1.8700338007000887e-06 0 0 0
6885 1 1 0 25.231485876458798 13.6813893193393 -1.649583842565233 0 0 0
9708 1 2 0 23.850352442716478 14.27522475181878 -2.2756623864174683 0 0 0
9709 1 2 0 26.488757433318813 14.552991150012042 -2.3028054541071366 0 0 0
6893 1 1 0 27.171328725763374 15.864122110566132 -1.5795756873260693 0 0 0
9721 1 2 0 28.70769571967726 16.673566560283245 -1.9221257935046323 0 0 0
9717 1 2 0 29.112151741973936 14.189775627282295 -2.092824085665612 0 0 0
9722 1 2 0 26.297998071210166 17.229459497102066 -1.926554267093881 0 0 0
13453 1 2 0 27.30647592104759 15.420337865912465 -2.9273397199594415e-06 0 0 0
13445 1 2 0 25.218261813805515 13.796029160554673 -4.271229127925335e-06 0 0 0
7019 1 1 0 27.316510118611042 18.550871466553595 -1.6331671566962704 0 0 0
6902 1 1 0 33.45469656681042 13.875524032062325 -1.4536246526668626 0 0 0
9719 1 2 0 29.94305331712155 16.742900889259978 -2.5363978958511666 0 0 0
6892 1 1 0 29.963324975484905 15.499563179808344 -1.5417138977454254 0 0 0
9736 1 2 0 33.047558910746474 15.165343395438331 -2.3811958592808042 0 0 0
9720 1 2 0 31.171312830154136 16.627828762562043 -1.9694890489317898 0 0 0
6903 1 1 0 32.82682259720811 16.623083336172744 -1.6224867685866313 0 0 0
13452 1 2 0 30.31915903628554 15.10983636607016 -3.7926497473444545e-06 0 0 0
13462 1 2 0 32.59443985382624 14.043735317975553 -8.019781762474587e-06 0 0 0
13463 1 2 0 33.2345600980908 16.606180744087755 -3.6720557916172746e-06 0 0 0
6894 1 1 0 30.16076798890342 18.021743837018224 -1.6025398743847707 0 0 0
9738 1 2 0 33.71493683641361 17.862584458419793 -2.2286669921534092 0 0 0
13454 1 2 0 29.949540823250015 17.874967178525505 -3.119157427928102e-06 0 0 0
9737 1 2 0 35.05003494253142 14.17424716861678 -1.2866556199635757 0 0 0
6904 1 1 0 36.49863016042525 13.420848100792636 -1.4881059130810645 0 0 0
9740 1 2 0 37.399465609617366 14.571678135571908 -2.2615204696426354 0 0 0
6909 1 1 0 37.37426151632188 16.132222893975925 -1.6550728725136161 0 0 0
9748 1 2 0 38.74311543163462 16.78006949270277 -2.2668084302717264 0 0 0
9749 1 2 0 36.18109551757461 17.11525432076203 -2.2156273083897964 0 0 0
6910 1 1 0 40.237658285772945 16.993794190251602 -1.6458614006455863 0 0 0
6990 1 1 0 35.19871713830521 18.31937706431333 -1.6454472376448386 0 0 0
9743 1 2 0 40.84374057040257 13.285832484718494 -2.27677358578527 0 0 0
9746 1 2 0 41.26611534590656 15.877085966164849 -2.260609766219318 0 0 0
6908 1 1 0 41.82205235992604 14.463727475829428 -1.6509487481990492 0 0 0
9747 1 2 0 43.329841873859294 14.303075420917247 -2.278486028823503 0 0 0
6915 1 1 0 44.815542124949275 14.030849565766145 -1.6468835372592514 0 0 0
9759 1 2 0 45.88007645526374 15.174353335203397 -2.1963146154467275 0 0 0
6997 1 1 0 46.00192619732626 16.72469140532835 -1.6474200844099514 0 0 0
9891 1 2 0 44.677064851280846 17.558382187848434 -2.2108474492127326 0 0 0
13557 1 2 0 46.046045247900835 16.751769744821445 -3.6478250183857968e-06 0 0 0
9750 1 2 0 40.68091659887732 18.43533131514045 -2.2563875762891534 0 0 0
9887 1 2 0 50.191518132844834 13.292201922921988 -2.25268427170477 0 0 0
6996 1 1 0 50.53413461570801 14.789434992882562 -1.6443741168101564 0 0 0
9889 1 2 0 49.60631544443329 16.017611251795447 -2.240250601670053 0 0 0
9890 1 2 0 47.374493188399555 17.423089121791943 -2.2320484170371806 0 0 0
6998 1 1 0 48.92120030231757 17.406529567478067 -1.648196478082973 0 0 0
13558 1 2 0 48.990346095801 17.407625660210986 -3.3557315665780367e-06 0 0 0
9767 1 2 0 54.05206034384289 13.297812068636917 -2.267386900664117 0 0 0
9772 1 2 0 52.042991405143844 15.097865566134695 -2.2044147688039026 0 0 0
6922 1 1 0 53.539674783755565 14.735901701025199 -1.644951982776114 0 0 0
9771 1 2 0 54.45021504216198 15.963079459604765 -2.244526121022167 0 0 0
6923 1 1 0 54.878722332668715 17.434966149889732 -1.646763207651187 0 0 0
9773 1 2 0 56.38726121516204 17.620255022886436 -2.245073334716493 0 0 0
9765 1 2 0 58.2040018164651 13.41326994196785 -2.2290417615519043 0 0 0
9783 1 2 0 62.95303611928023 13.154383173688078 -2.2331002447976376 0 0 0
6921 1 1 0 59.10745317129936 14.670081015760696 -1.645690231054906 0 0 0
9769 1 2 0 58.61112501029691 16.13462767557984 -2.241270128230587 0 0 0
9770 1 2 0 60.61095708233198 14.339705253535945 -2.2127140966728276 0 0 0
6930 1 1 0 62.14738241768027 14.480788727962226 -1.6503065036621898 0 0 0
9786 1 2 0 62.65774476513601 15.926126962432292 -2.283228980802419 0 0 0
6924 1 1 0 57.90690453641861 17.514058238713112 -1.6463019583087222 0 0 0
13490 1 2 0 62.22762487037265 14.49232605056926 -3.631033161820827e-07 0 0 0
9791 1 2 0 67.0467826702977 13.291670439570536 -2.1971271719462266 0 0 0
9793 1 2 0 67.6006581573604 16.00301132888214 -2.2431738047002567 0 0 0
6935 1 1 0 68.04077458248813 14.4990183488425 -1.6492079789197922 0 0 0
6937 1 1 0 63.53333983196168 17.161252073024897 -1.6130179518427041 0 0 0
9795 1 2 0 65.07472901807883 16.668400866599324 -1.9247923197129755 0 0 0
6936 1 1 0 66.60607037382738 17.188994367324376 -1.606478531372806 0 0 0
13495 1 2 0 68.04158078762183 14.570616817830128 -3.4326701463200306e-08 0 0 0
9794 1 2 0 69.50872160301522 14.027632625674677 -2.2395524591852127 0 0 0
6942 1 1 0 70.97081808612862 13.541265499140259 -1.6462235089736192 0 0 0
9806 1 2 0 71.9874137651663 14.712309476609205 -2.2129391915086227 0 0 0
6947 1 1 0 72.31311859447125 16.22235667096487 -1.6511099901822635 0 0 0
9815 1 2 0 71.26687792706674 17.393633584052065 -2.2350514643931967 0 0 0
9814 1 2 0 73.81895348656808 16.468598682088984 -2.2607140294280117 0 0 0
6945 1 1 0 77.91463588496077 12.94666945458239 -1.6452388447179427 0 0 0
9812 1 2 0 76.43596026162716 16.262320555917313 -2.1914332733653867 0 0 0
9810 1 2 0 78.32298445477034 14.459268953823965 -2.224073838368149 0 0 0
6946 1 1 0 77.97130692439573 15.991638874701163 -1.6470229640819571 0 0 0
6948 1 1 0 75.16930924860324 17.153426473199886 -1.6446991915114375 0 0 0
9813 1 2 0 78.91115202031787 17.2414611768594 -2.2340443679936905 0 0 0
13506 1 2 0 78.07593233960677 15.994667001179875 3.8651937584056247e-07 0 0 0
6959 1 1 0 79.80303326810287 18.526076294303955 -1.6430731018380733 0 0 0
6956 1 1 0 84.37800904056854 13.29395487170961 -1.6472950895456397 0 0 0
9830 1 2 0 85.91889021726574 13.011211388014779 -2.1931287927736265 0 0 0
9829 1 2 0 84.08190253508407 14.848605995136522 -2.2024144788718973 0 0 0
6958 1 1 0 84.67918324515476 16.309479344960263 -1.6471041498676844 0 0 0
9832 1 2 0 83.81305538839737 17.589999610708563 -2.246113091902025 0 0 0
13518 1 2 0 84.59751707335236 16.291892802988 1.1368640183021761e-11 0 0 0
9834 1 2 0 81.32952280537152 18.23063036247828 -2.172783869351638 0 0 0
9833 1 2 0 86.247509100249 16.61220495700297 -2.1487711381577075 0 0 0
9838 1 2 0 88.6205786968893 12.810375835639656 -2.2391636630955825 0 0 0
9843 1 2 0 91.35327218054387 13.292375556650544 -2.2493500836984306 0 0 0
6964 1 1 0 89.86685745233117 13.734498321379219 -1.6498276239492318 0 0 0
9842 1 2 0 89.65647714768228 15.267906371463997 -2.2090505615588434 0 0 0
9844 1 2 0 88.74932343514942 17.721877361598615 -2.215124753093745 0 0 0
6965 1 1 0 89.99062738685714 16.78280168318552 -1.6468843708181975 0 0 0
9845 1 2 0 91.43849086210565 17.320690079011083 -2.2524456798756267 0 0 0
13525 1 2 0 90.05242797857271 16.800173259112693 -2.8166510090023266e-09 0 0 0
6966 1 1 0 87.19923070045407 17.88760398317561 -1.6470845134399532 0 0 0
13526 1 2 0 87.21720360129359 17.92232533520763 -1.8774003051645353e-07 0 0 0
6973 1 1 0 95.38353886720216 12.985779818278562 -1.6478932735636769 0 0 0
9857 1 2 0 95.31052172610885 14.502512434680867 -2.2527309337662698 0 0 0
6974 1 1 0 95.44041650203785 16.010636938713503 -1.6459091326257895 0 0 0
9859 1 2 0 94.12676494179556 16.812467861476534 -2.2419518789786164 0 0 0
9860 1 2 0 96.91064784162418 16.488198140847732 -2.2214164578860767 0 0 0
6975 1 1 0 92.91399288701224 17.76660817603653 -1.646233300666923 0 0 0
13535 1 2 0 92.88506839535042 17.70628236777249 -4.515021043998096e-07 0 0 0
6719 1 1 0 100.88153883296488 13.233107034901192 -1.6477367889867098 0 0 0
6720 1 1 0 100.96629962846839 16.300162316012443 -1.6474579846518989 0 0 0
9455 1 2 0 101.02474366851135 14.763577021638763 -2.2345508033597308 0 0 0
6981 1 1 0 98.1172946685694 17.452364034249612 -1.6457749934490038 0 0 0
9457 1 2 0 99.5909297280469 17.00921623430823 -2.2443590391417203 0 0 0
9453 1 2 0 102.31564335154548 17.056183983623086 -2.22261320471262 0 0 0
13279 1 2 0 100.86869794928536 13.212780343532518 1.3430591895915788e-08 0 0 0
6756 1 1 0 7.912427475035854 19.760209198419872 -1.647536748321583 0 0 0
9510 1 2 0 6.901653867339475 20.916181508488545 -2.2429650276753232 0 0 0
9511 1 2 0 9.395499946316772 20.12566402318235 -2.251273385056103 0 0 0
6772 1 1 0 10.839406817622121 20.622650146898916 -1.6470189155474169 0 0 0
9535 1 2 0 11.941961713992551 19.554651218813273 -2.224165901170703 0 0 0
9536 1 2 0 11.181233619743969 22.11634673557451 -2.2636367143753087 0 0 0
6801 1 1 0 11.20799461031905 23.639100271632906 -1.6500353151957623 0 0 0
6774 1 1 0 13.31010631828462 18.83756992167665 -1.6512788758399504 0 0 0
9870 1 2 0 16.78249234950013 18.620822557133984 -1.9100908007744934 0 0 0
9539 1 2 0 14.544392988427518 19.78374668497985 -2.2494516313256385 0 0 0
6984 1 1 0 16.053715616942192 20.07939985021177 -1.6132873787134852 0 0 0
9872 1 2 0 16.84822436207765 21.4144031018141 -2.2585552483931854 0 0 0
7052 1 1 0 17.323998274806094 22.89467577818427 -1.6384984139841652 0 0 0
13612 1 2 0 17.501453540824933 22.726671277060174 -3.5900392791226815e-06 0 0 0
13544 1 2 0 15.909372018167026 20.386834131839844 -3.4441817009228006e-06 0 0 0
9580 1 2 0 12.580138644173957 24.365070271851405 -2.246420720719176 0 0 0
9971 1 2 0 16.185431375921624 23.993620316659715 -2.1336469115566983 0 0 0
9876 1 2 0 21.541478184316517 18.68149055888812 -1.3616033518977648 0 0 0
9871 1 2 0 19.26202413478326 19.169077070648644 -2.314401294084964 0 0 0
6987 1 1 0 20.50672502233905 19.929570972130524 -1.4989008219684237 0 0 0
9877 1 2 0 21.212743361842474 21.23453501707257 -2.2781526203947493 0 0 0
7056 1 1 0 22.000062301423498 22.492748373136063 -1.4975454798101773 0 0 0
9977 1 2 0 23.261555808350117 23.250346615486382 -2.2781621886479 0 0 0
9972 1 2 0 18.694269601655286 23.647109281344623 -2.251698643350037 0 0 0
9975 1 2 0 21.056354287865084 23.784024677142277 -1.2890289597812763 0 0 0
9878 1 2 0 23.9191828198851 19.270779485072325 -2.228187775169352 0 0 0
7057 1 1 0 25.12546274869454 20.283840161236636 -1.6529727532767913 0 0 0
9924 1 2 0 26.515264025083333 19.755408270560245 -2.3531799194790177 0 0 0
9923 1 2 0 28.907874045710624 19.261769268255044 -1.9967855352939794 0 0 0
9978 1 2 0 25.320945897991756 21.850313406973605 -2.136111306726857 0 0 0
13579 1 2 0 27.29591735479518 18.709072266627974 -3.912486304469012e-06 0 0 0
13617 1 2 0 25.025752663110023 20.299132292317353 -2.7745084510998907e-06 0 0 0
7082 1 1 0 24.798986811493403 23.330879399922846 -1.639837376075229 0 0 0
9723 1 2 0 31.342537046168 19.241046978016804 -1.7615567700711723 0 0 0
7020 1 1 0 30.16111112541743 20.404500114283636 -1.5525054251361974 0 0 0
9925 1 2 0 30.588333066863836 21.795734642075015 -2.31023691281001 0 0 0
13580 1 2 0 29.74493470373504 20.847579646120373 -4.227737214736864e-06 0 0 0
7081 1 1 0 31.434728980778242 23.091998032198624 -1.6552114403897618 0 0 0
13641 1 2 0 31.451839648373845 23.064973645913625 -4.429220966572413e-06 0 0 0
10015 1 2 0 32.990069902852625 23.119263310806925 -2.214259379325569 0 0 0
7086 1 1 0 34.46891178312823 23.621544854009016 -1.6476723660416819 0 0 0
13646 1 2 0 34.45567434485184 23.6700967614232 -1.3558214252910372e-06 0 0 0
9880 1 2 0 35.59669441323412 19.81092470118412 -2.2437531982075134 0 0 0
7060 1 1 0 36.33033139513745 21.177933504644663 -1.6525141251467435 0 0 0
9983 1 2 0 35.56935049902432 22.53318137447528 -2.226939083709644 0 0 0
9982 1 2 0 37.87869120050985 21.212764276057822 -2.2457674640270353 0 0 0
7061 1 1 0 39.286665321638004 21.826629154034386 -1.6443457446403311 0 0 0
9984 1 2 0 39.467655889289595 23.385505456525326 -2.159923141737775 0 0 0
9927 1 2 0 40.61218004631754 21.04077687658954 -2.2438317577732603 0 0 0
7021 1 1 0 41.438513135354825 19.749230478013565 -1.6475508294309285 0 0 0
9926 1 2 0 42.95880226548023 19.71315774795205 -2.2845757074700193 0 0 0
7022 1 1 0 44.32920692280829 19.06830871294212 -1.637036594438958 0 0 0
9928 1 2 0 45.589959879589465 20.041340690168223 -2.0867931507323854 0 0 0
7064 1 1 0 45.61826813939678 21.62761945233857 -1.6351507795221114 0 0 0
9989 1 2 0 44.22539402217474 22.342121257095492 -2.181493340953706 0 0 0
13624 1 2 0 45.690298212312214 21.798460380208834 -1.608674892849366e-06 0 0 0
13582 1 2 0 44.16548458633476 19.00804829688394 -3.6200060437728973e-06 0 0 0
7089 1 1 0 40.650978962792195 24.416380170100773 -1.6460951203738672 0 0 0
10025 1 2 0 42.12336530428723 23.98387101182959 -2.2730691675059282 0 0 0
7090 1 1 0 43.634029665255724 23.789601209747843 -1.6426884290068584 0 0 0
9892 1 2 0 49.64001607178781 18.775776326463358 -2.2331359307568754 0 0 0
7025 1 1 0 50.31042931836175 20.17454247164791 -1.6482548719771535 0 0 0
9933 1 2 0 49.537558628117004 21.520535893981737 -2.2304920187637207 0 0 0
9988 1 2 0 46.970729271290885 22.26793081176662 -2.301191170677838 0 0 0
7065 1 1 0 48.44792387882851 22.62047644940405 -1.6486852042180375 0 0 0
13585 1 2 0 50.28841998544998 20.16078377242422 -1.4487577694790158e-06 0 0 0
13625 1 2 0 48.464107857401835 22.575049684988 -2.840653965966098e-06 0 0 0
9932 1 2 0 51.84643065864184 20.26569119249025 -2.2366136090047797 0 0 0
9990 1 2 0 48.76778437171741 24.146414922786043 -2.1921699211235044 0 0 0
9774 1 2 0 53.95512280580985 18.671668615176305 -2.232250486085906 0 0 0
7026 1 1 0 53.37622513219965 20.106597635238792 -1.6481747951528494 0 0 0
9934 1 2 0 54.27908637637075 21.36261844230616 -2.2369906139803533 0 0 0
7068 1 1 0 54.89071838715017 22.781007112574148 -1.6472755523346603 0 0 0
9994 1 2 0 56.428653434387236 22.96637923208903 -2.2274876222643276 0 0 0
13586 1 2 0 53.38856624910448 20.109269540119776 -3.491497869541202e-06 0 0 0
13628 1 2 0 54.912309187308345 22.7536867476589 -7.088371748838405e-07 0 0 0
9995 1 2 0 53.941557416007456 24.026994850923213 -2.1943280423215565 0 0 0
9775 1 2 0 58.55720427656532 18.903221307395846 -2.2358029705657367 0 0 0
9797 1 2 0 63.19906179320756 18.673112736658872 -2.2436574169862675 0 0 0
7030 1 1 0 59.35754144396362 20.216436426668366 -1.6500229157687216 0 0 0
9938 1 2 0 60.84925265941805 19.949967474919234 -2.2837586734587716 0 0 0
7029 1 1 0 62.35469772537218 19.990652405738338 -1.6405196739589165 0 0 0
9939 1 2 0 62.83929385754038 21.51478328244196 -2.0790357091492346 0 0 0
7069 1 1 0 57.98006687719175 22.99552642717809 -1.6474106251878178 0 0 0
9940 1 2 0 58.76097842815214 21.65197900919702 -2.2275207741712872 0 0 0
13590 1 2 0 59.34431733658503 20.249033630487855 -1.6333030224854467e-07 0 0 0
13589 1 2 0 62.341602662607166 19.88310757495205 -1.7755271647333763e-07 0 0 0
13629 1 2 0 57.988772484500366 22.990536976124663 -5.18618364865043e-07 0 0 0
9996 1 2 0 58.72454172187632 24.376466594923723 -2.2002365209593022 0 0 0
9796 1 2 0 66.66006880708103 18.729434288893923 -2.269680738179679 0 0 0
7004 1 1 0 66.28761440035113 20.172236427763522 -1.5051159242717325 0 0 0
9900 1 2 0 67.66721964616201 21.008098854578126 -1.3293828662028513 0 0 0
9901 1 2 0 65.3633602899739 21.312344866361613 -2.292250344440879 0 0 0
7033 1 1 0 64.20854462442912 22.33405516846593 -1.6355482754006727 0 0 0
13564 1 2 0 65.6141367168965 19.82645513220015 -1.1071542513382074e-07 0 0 0
9944 1 2 0 64.09504531153038 23.895161007109127 -2.220255073425929 0 0 0
13593 1 2 0 64.4334270915657 22.454063115563 9.464234455721651e-07 0 0 0
9902 1 2 0 69.83582123941919 19.782992783279255 -2.231589144945242 0 0 0
7006 1 1 0 69.26811331545737 21.165110330258976 -1.4978345718699133 0 0 0
7005 1 1 0 71.14248555821734 18.93705180324163 -1.6415687710943405 0 0 0
9903 1 2 0 72.44834357420679 19.807724232425 -2.1761167339555363 0 0 0
9945 1 2 0 74.57889792179772 21.32933310047178 -2.1276049916160993 0 0 0
9904 1 2 0 69.43090568411947 22.588964114436163 -2.323081804479018 0 0 0
7035 1 1 0 73.00827482272462 21.266078976568764 -1.6341992532810874 0 0 0
9947 1 2 0 72.23740823282729 22.575529800158957 -2.2654511316537658 0 0 0
13595 1 2 0 72.88562003569362 21.279311669951934 -6.02434496320508e-07 0 0 0
7073 1 1 0 69.36345852587058 24.107107752478008 -1.6468846519486284 0 0 0
7072 1 1 0 72.22891687550899 24.121070611318714 -1.6415558739514153 0 0 0
13632 1 2 0 72.36486053223445 24.09064311272412 -1.4650863909484553e-07 0 0 0
9816 1 2 0 75.20226095881232 18.674989321687107 -2.271463053737325 0 0 0
7034 1 1 0 75.6072751466395 20.13362036982067 -1.643025717592305 0 0 0
9946 1 2 0 77.03084848827685 20.540829531367763 -2.3094612240980847 0 0 0
9835 1 2 0 79.52042832966255 20.09013612861663 -2.183139026516519 0 0 0
7039 1 1 0 78.38778294181432 21.185084272244097 -1.6471244900967394 0 0 0
9953 1 2 0 78.40030217855963 22.752471116932032 -2.217512563509846 0 0 0
7107 1 1 0 77.63835453505361 24.125987016843315 -1.6430108043373195 0 0 0
13667 1 2 0 77.57026044312107 24.021979890965277 -5.506843938722027e-07 0 0 0
6960 1 1 0 82.80108845628563 18.75231319341972 -1.6450131037066713 0 0 0
9836 1 2 0 83.08235351555986 20.284830107423755 -2.2288607964323908 0 0 0
7042 1 1 0 83.75253587789236 21.694163613590423 -1.6468443263704045 0 0 0
9957 1 2 0 82.92704360787388 23.02812358051397 -2.2223991449227944 0 0 0
9955 1 2 0 85.33812820273971 21.735721128035568 -2.165043395639441 0 0 0
13602 1 2 0 83.68236149362527 21.709820243658843 -2.9370012764901763e-07 0 0 0
9846 1 2 0 86.60614882871006 19.329742915995716 -2.223460369959823 0 0 0
7041 1 1 0 86.67185714591737 20.885366306132696 -1.6470441950983261 0 0 0