LAMMPS data file via write_data, version 2 Aug 2023, timestep = 183, units = metal

15888 atoms
2 atom types

6.090909251128153 200.18141006532636 xlo xhi
7.598149754485403 171.8141465262892 ylo yhi
-100 100 zlo zhi

Masses

1 28.085
2 15.999

Atoms # full

6769 1 1 0 7.623257555491947 11.453901073873903 -1.6478627883238133 0 0 0
9521 1 2 0 6.673340948405753 10.265325912459787 -2.262021328132479 0 0 0
9524 1 2 0 9.19824113569567 11.365948270164523 -2.179728319049795 0 0 0
9523 1 2 0 6.968348631969102 12.820167659739761 -2.282924608039476 0 0 0
6774 1 1 0 10.342539044224523 12.455448328416686 -1.6475665462204325 0 0 0
13389 1 2 0 7.581241100107231 11.422349559310508 -1.714336291050024e-07 0 0 0
6776 1 1 0 12.00887791832815 8.084403485444112 -1.6449002211745636 0 0 0
9533 1 2 0 12.137883747133108 9.637560131122699 -2.2037591219646977 0 0 0
9721 1 2 0 16.0998266536046 8.195967512588838 -2.2373700698550065 0 0 0
6775 1 1 0 12.898724075617263 11.001763519130089 -1.6444172962211483 0 0 0
9531 1 2 0 11.879380241122325 12.186879645028613 -2.185307427102632 0 0 0
9534 1 2 0 14.405556136269215 11.331255647411387 -2.261173466597678 0 0 0
6900 1 1 0 15.90146795042582 11.734795177869055 -1.6441650661328338 0 0 0
6899 1 1 0 17.355804837596303 9.107700964756502 -1.6437398754116848 0 0 0
9720 1 2 0 17.052436338630137 10.655381154777741 -2.1471910292017506 0 0 0
13520 1 2 0 15.804106121714137 11.767815573147827 -7.015731534622853e-07 0 0 0
9723 1 2 0 16.41932904076983 13.202016346919079 -2.2083824981167237 0 0 0
9722 1 2 0 18.84981625302213 8.69733265814435 -2.244262334314273 0 0 0
6902 1 1 0 20.397014968625726 8.524320525728783 -1.6474728655906064 0 0 0
9725 1 2 0 21.473106551656322 9.635461543639819 -2.218131993005701 0 0 0
9727 1 2 0 21.413977501054518 12.186349619576424 -2.193326788204693 0 0 0
6903 1 1 0 22.35277519214846 10.913420564122635 -1.6471335984076576 0 0 0
13522 1 2 0 20.34329227287071 8.554424903120415 -1.5566677843971482e-07 0 0 0
9745 1 2 0 25.840719753312293 8.699035220732721 -2.168565837383898 0 0 0
9728 1 2 0 23.945339919669316 10.75631094795706 -2.19582494669319 0 0 0
6913 1 1 0 25.458979988272045 10.237357295307383 -1.6466518058805535 0 0 0
9744 1 2 0 26.758826420174213 11.131066861073009 -2.1939287571977397 0 0 0
6914 1 1 0 27.728798182300658 12.370081614655941 -1.6479157725285585 0 0 0
13533 1 2 0 25.40131376712486 10.292297423686932 -3.5003323368588614e-07 0 0 0
9756 1 2 0 31.13143693148927 8.647743156752647 -2.1632471650787166 0 0 0
6920 1 1 0 32.34344946813521 9.722273926181865 -1.6485987226007548 0 0 0
9747 1 2 0 29.30643701284519 12.33567850936873 -2.2051102098505315 0 0 0
9754 1 2 0 31.84046733313119 11.25445434364469 -2.1586608165877466 0 0 0
6919 1 1 0 30.885359862310395 12.547569763625077 -1.649163835087465 0 0 0
9757 1 2 0 33.94474912429037 9.368448612892838 -2.157123576298317 0 0 0
13540 1 2 0 32.3735772825519 9.676327964245376 -3.3756211265445494e-08 0 0 0
6930 1 1 0 35.581958667835366 9.202844947447037 -1.649476981826768 0 0 0
9770 1 2 0 36.512084494064524 10.506610698614029 -2.1978631606698458 0 0 0
6928 1 1 0 37.73391843455476 11.520411351401815 -1.6517145823206463 0 0 0
9773 1 2 0 36.461517526825595 7.828311216641217 -2.1312269308151155 0 1 0
9771 1 2 0 39.25221491114331 11.050435293816728 -2.2108396715009375 0 0 0
13548 1 2 0 37.707369316044144 11.46606175414417 -2.6354422347002134e-07 0 0 0
13550 1 2 0 35.52157188568162 9.201859896565473 -4.4236653487188964e-07 0 0 0
9767 1 2 0 37.58287368735659 13.099386260063863 -2.1695011802003967 0 0 0
9783 1 2 0 43.68633615277019 9.483697279479575 -2.2278269948801714 0 0 0
6937 1 1 0 40.6410788466946 11.665211561807787 -1.5140092347838376 0 0 0
9782 1 2 0 42.02764810932482 11.350616182879465 -2.3597845444949392 0 0 0
6935 1 1 0 43.494717382243756 11.031195884759274 -1.6586605022895422 0 0 0
6942 1 1 0 44.052803314807704 7.996127509373405 -1.6277753350502662 0 0 0
9791 1 2 0 45.63697991870597 7.817214882788389 -2.0688771680658156 0 0 0
9779 1 2 0 44.67888643275117 12.134531577140912 -2.131133218796405 0 0 0
13557 1 2 0 40.71258673172331 10.992970713908274 -3.038838734115931e-07 0 0 0
13555 1 2 0 43.49315604098996 11.045459664738656 -1.3414473161116446e-07 0 0 0
9784 1 2 0 40.670272354281785 13.293233923934892 -1.4233243587908049 0 0 0
6941 1 1 0 46.74767635157403 8.963147127680834 -1.6399425480015533 0 0 0
9792 1 2 0 48.097090798762295 8.323194805406173 -2.2811409343828037 0 0 0
9781 1 2 0 46.67532911942315 10.49039306404356 -2.25720614784932 0 0 0
6934 1 1 0 46.28951134085668 11.979653448394886 -1.6447979505333141 0 0 0
6945 1 1 0 49.602496180976146 8.360637616931319 -1.6494057967459665 0 0 0
9795 1 2 0 50.278404731125924 9.769127356196224 -2.215766086938932 0 0 0
6943 1 1 0 51.539450434064584 10.690496103085785 -1.64190096531837 0 0 0
9794 1 2 0 51.653793734966776 12.227594181412957 -2.242239572099989 0 0 0
9780 1 2 0 47.457673037314585 13.025471660190485 -2.229719256490374 0 0 0
13561 1 2 0 46.786273940194796 9.102431246589337 -5.6574507407038156e-08 0 0 0
13563 1 2 0 51.4590648256691 10.794699556690194 2.6021338936971313e-08 0 0 0
13554 1 2 0 46.349228210291706 12.07436070053192 -2.740900653852187e-07 0 0 0
9796 1 2 0 52.870774937929966 9.906849658765355 -2.195941065378397 0 0 0
6947 1 1 0 53.74666990060439 8.627837420406754 -1.6472594264190945 0 0 0
9800 1 2 0 55.23661454609874 9.000544026451513 -2.2357232572567773 0 0 0
6950 1 1 0 56.5622703286287 9.80095266475826 -1.6464972525107784 0 0 0
9803 1 2 0 56.67191459071308 11.38274604204159 -2.1994447009492393 0 0 0
6948 1 1 0 56.96938553950584 12.954970351150173 -1.6501690934340916 0 0 0
13567 1 2 0 53.73201670321169 8.568702185090189 8.999802037526199e-08 0 0 0
9806 1 2 0 57.74723679087997 8.746580686248583 -2.1679484768714254 0 0 0
6963 1 1 0 61.244451442429494 7.824608932579717 -1.646588256021464 0 0 0
9826 1 2 0 61.575376766492624 9.327792489326411 -2.2496403983598476 0 0 0
9818 1 2 0 60.89654466106249 11.860684858100408 -2.1951175024347394 0 0 0
6962 1 1 0 62.052937369451776 10.796510161573904 -1.6495552367792032 0 0 0
13583 1 2 0 61.23478892060103 7.897942589460443 -1.4917175162712524e-06 0 0 0
9804 1 2 0 58.531761536308494 13.333295077351178 -2.178671917365883 0 0 0
6957 1 1 0 60.12765500347419 13.234859915022275 -1.6477256535278806 0 0 0
9827 1 2 0 63.59288405329179 11.13588080648127 -2.209900287909003 0 0 0
6969 1 1 0 65.16219200119684 11.078524743201887 -1.6483910756304383 0 0 0
6972 1 1 0 66.90770910512485 8.565162418225489 -1.6434343730065633 0 0 0
9842 1 2 0 68.46281573492952 8.503365693023866 -2.232423593972469 0 0 0
9837 1 2 0 66.0134831340284 9.802716969244406 -2.257467204807729 0 0 0
9836 1 2 0 66.04674391719996 12.34061633882542 -2.233080773842121 0 0 0
13592 1 2 0 66.9933905433922 8.646370290183407 -1.0550744663334891e-06 0 0 0
6970 1 1 0 67.11353081270825 13.456156572952164 -1.645965843260573 0 0 0
9839 1 2 0 68.67422513064167 13.243969221422581 -2.1994957973635696 0 0 0
6980 1 1 0 70.0216449618966 8.41341264385738 -1.648432212440529 0 0 0
9851 1 2 0 70.82434771999402 9.755265800452186 -2.1994319703296425 0 0 0
6978 1 1 0 71.92150811705022 10.881321691108951 -1.6476844877713113 0 0 0
9852 1 2 0 73.43082535853793 10.295398925124488 -2.1710906229084506 0 0 0
9850 1 2 0 71.32149512766746 12.402037189562517 -2.1599607574179136 0 0 0
6981 1 1 0 74.90924993175733 9.633683364985284 -1.6442079233138933 0 0 0
9856 1 2 0 75.58092106948854 8.18628968055501 -2.218218782977575 0 0 0
9855 1 2 0 76.0613687052326 10.680703458454081 -2.179376696751225 0 0 0
6983 1 1 0 77.09138092908942 11.837906246619868 -1.6466989370861742 0 0 0
9860 1 2 0 78.59624680024177 11.462798303614587 -2.261798399316545 0 0 0
6992 1 1 0 80.13185325359709 11.333156824126846 -1.6434983872367936 0 0 0
13612 1 2 0 79.986275685711 11.299605232518958 -7.100206473518374e-07 0 0 0
9857 1 2 0 76.41375271888805 13.22585517422578 -2.266209795797095 0 0 0
9874 1 2 0 80.98291088971554 10.006956423017183 -2.178642744581619 0 0 0
9872 1 2 0 81.15241619856616 12.554737251353064 -2.148857067562568 0 0 0
9942 1 2 0 83.03432227138606 8.322899179949427 -2.2622864514857217 0 0 0
7036 1 1 0 82.54824233129412 9.770796194170671 -1.6517518546385164 0 0 0
9884 1 2 0 83.59447217293251 10.937997486985884 -2.2320920550354098 0 0 0
6997 1 1 0 85.0803242441187 11.361018381309707 -1.64776582779321 0 0 0
9882 1 2 0 85.5443414563697 12.856618322220198 -2.186484392523372 0 0 0
13656 1 2 0 82.57365619356186 9.754601666656418 -1.182119674215463e-07 0 0 0
9880 1 2 0 86.26580467844788 10.38146519429792 -2.2837260621334274 0 0 0
6995 1 1 0 87.63167742970312 9.878070613108882 -1.5094557184433204 0 0 0
9881 1 2 0 87.46317945480173 8.276673251515803 -1.363407750837139 0 0 0
9876 1 2 0 89.04544879406009 10.120852471341443 -2.3431670230347494 0 0 0
6993 1 1 0 90.46743753896781 10.40002758796259 -1.536364068501457 0 0 0
9875 1 2 0 90.77235089507565 12.018859873244603 -1.5232484966183157 0 0 0
13615 1 2 0 87.72144013429731 10.609369164921096 -2.7210972445784245e-07 0 0 0
9878 1 2 0 88.38394786767608 13.084944297569946 -2.228371469909786 0 0 0
6994 1 1 0 89.86604227318459 13.390477241358873 -1.5310806989607775 0 0 0
9877 1 2 0 91.757050771098 9.725112027442565 -2.306983077814532 0 0 0
6998 1 1 0 93.27163913291362 9.554798136233172 -1.652590541995633 0 0 0
9886 1 2 0 93.83392373105204 8.10974197512646 -2.20411751800405 0 0 0
6999 1 1 0 95.63194526145699 11.455134302693867 -1.6484947865997774 0 0 0
9885 1 2 0 94.29512698159762 10.697637355289553 -2.2507037892970954 0 0 0
9888 1 2 0 96.98562932387206 10.7058718040631 -2.2319891578385715 0 0 0
9887 1 2 0 95.58328746921951 12.996406641675192 -2.2295077502387413 0 0 0
13619 1 2 0 95.63768589252665 11.440509016050505 4.422471056164736e-09 0 0 0
13618 1 2 0 93.23608105949495 9.647762762747508 -1.0695405041452211e-06 0 0 0
9904 1 2 0 99.01034731295627 8.912471285288778 -2.2139331103542257 0 0 0
7009 1 1 0 98.49951877395615 10.38530821857883 -1.6481673118545626 0 0 0
9361 1 2 0 99.51562380353833 11.554705323759094 -2.2226297711208116 0 0 0
9354 1 2 0 102.17414593611936 11.556222324253607 -2.235157180061895 0 0 0
6669 1 1 0 100.84860235245897 12.347790841422 -1.648364045055072 0 0 0
13629 1 2 0 98.49497765451265 10.389603466001747 -1.7750731983819804e-07 0 0 0
13289 1 2 0 100.86688749427199 12.362786220478032 -1.2028081597847614e-07 0 0 0
6771 1 1 0 6.1895331459250285 14.103642596147969 -1.6481178190254182 0 0 0
9532 1 2 0 9.954831096670416 13.949678641286729 -2.2478757334660227 0 0 0
9527 1 2 0 6.926761245341387 15.40544823679561 -2.323803538017711 0 0 0
6796 1 1 0 7.821704047319982 16.587658550257448 -1.639548961035926 0 0 0
9566 1 2 0 9.397849638608543 16.549998155898507 -2.1569757834797687 0 0 0
6797 1 1 0 10.472822709455045 15.395864305200426 -1.6435865291385023 0 0 0
9567 1 2 0 7.110123141101123 17.973303834875324 -2.1431635509102978 0 0 0
9568 1 2 0 11.978157450594743 15.79631722585815 -2.1838023330185226 0 0 0
6862 1 1 0 12.750390557407213 17.169308915173566 -1.6456571461169671 0 0 0
9666 1 2 0 14.289737862568115 16.96880089713116 -2.2334020399013186 0 0 0
7018 1 1 0 15.855153822696842 17.000203962267495 -1.6482844640919732 0 0 0
9915 1 2 0 16.39730838798206 18.456152016644495 -2.2117732967584787 0 0 0
9731 1 2 0 16.873945530699746 15.7817050611868 -2.190627420138714 0 0 0
9660 1 2 0 11.834352636225926 18.455945108837543 -2.1995435713768807 0 0 0
13482 1 2 0 12.828699889766172 17.285473386217475 -6.568455265937922e-08 0 0 0
13638 1 2 0 15.83955937023568 16.942809103722844 -2.1331304825940843e-07 0 0 0
6905 1 1 0 17.515815605369987 14.324243969053247 -1.64959844657907 0 0 0
9729 1 2 0 19.05915777845682 13.911229875388004 -2.2002862817385314 0 0 0
6904 1 1 0 20.606368997199606 13.545267222518463 -1.6442983174077312 0 0 0
9730 1 2 0 21.597281953080056 14.741227727001425 -2.2107051946866796 0 0 0
9750 1 2 0 22.868481049010168 16.95345278394467 -2.262366414455573 0 0 0
6916 1 1 0 22.98315523728948 15.432491225548551 -1.6483319928529991 0 0 0
7021 1 1 0 22.545166891746955 18.442268056558426 -1.64731046778081 0 0 0
13641 1 2 0 22.50883808166585 18.426048698245076 -4.0932457697305773e-07 0 0 0
13525 1 2 0 17.579967804454537 14.35469723056401 2.7874216654757082e-08 0 0 0
9919 1 2 0 21.082384611018828 18.978595067655586 -2.216014951942875 0 0 0
9746 1 2 0 26.958089573300906 13.711474249849678 -2.2419780520212678 0 0 0
9748 1 2 0 24.388112101761667 14.712667112783869 -2.190607228889019 0 0 0
6915 1 1 0 25.9583295387671 14.877324135748788 -1.6471502270265816 0 0 0
9749 1 2 0 26.597390357730994 16.277669276909627 -2.2323199551255137 0 0 0
6925 1 1 0 27.398167918682596 17.591125895889274 -1.6489825226300594 0 0 0
13545 1 2 0 27.438725657064403 17.577898137234055 -8.217140460779083e-07 0 0 0
9765 1 2 0 26.561174631380002 18.87592026951479 -2.2680102143896494 0 0 0
9764 1 2 0 28.935760074700042 17.642177444961284 -2.235410191829777 0 0 0
9755 1 2 0 31.487193208654187 14.031299276615885 -2.1808798376861627 0 0 0
6924 1 1 0 32.20315422907938 15.467083467240231 -1.6499380904546015 0 0 0
9762 1 2 0 31.45923735446612 16.891534646575927 -2.1775989837071856 0 0 0
6926 1 1 0 30.418844770156024 18.10732072304901 -1.648456039612412 0 0 0
9763 1 2 0 33.79010062741509 15.464065996512288 -2.193517276631926 0 0 0
6927 1 1 0 37.967070719508314 14.655207337737385 -1.655892343077885 0 0 0
6929 1 1 0 35.21064100671985 16.16188082222717 -1.6426964566765836 0 0 0
9768 1 2 0 36.64057505141776 15.518752571229705 -2.2203617763700936 0 0 0
9772 1 2 0 35.11715960552033 17.74843358914525 -2.132726442437496 0 0 0
9769 1 2 0 39.43554451045242 15.342720351549266 -2.1920748497377036 0 0 0
13547 1 2 0 38.0134085081678 14.680227389527424 -4.033715555241653e-07 0 0 0
7024 1 1 0 35.98272310624926 19.074214512423957 -1.6434363314813702 0 0 0
9924 1 2 0 37.54089061380909 18.78754987402584 -2.2087368768548123 0 0 0
13549 1 2 0 35.22457488390179 16.032939833255803 -1.3475517117595868e-07 0 0 0
6936 1 1 0 40.96678700080104 14.907048420376855 -1.5251579324823523 0 0 0
9785 1 2 0 42.52373339124374 15.137036425765164 -2.211718969217692 0 0 0
6939 1 1 0 43.72716258955034 16.188560317351946 -1.4873511505015378 0 0 0
9789 1 2 0 42.595873824295836 17.37631920728884 -1.2583755267124899 0 0 0
9788 1 2 0 45.27179088602968 16.83675153495273 -2.0349124616981427 0 0 0
13559 1 2 0 44.11617338502289 15.52242355020352 -4.170166586948146e-08 0 0 0
9926 1 2 0 40.46493485214088 18.75858760082711 -2.156649610007969 0 0 0
7025 1 1 0 42.011269878512124 18.881915986109476 -1.5012673411491646 0 0 0
13556 1 2 0 41.066699051904735 15.57729339834582 2.057261473428603e-08 0 0 0
6938 1 1 0 48.46659470243382 14.24526782421811 -1.6477246141998232 0 0 0
9786 1 2 0 47.68901606774664 15.60964018634546 -2.1837820234656915 0 0 0
6940 1 1 0 47.00096830051354 17.0101888113608 -1.6312920647865186 0 0 0
9790 1 2 0 48.2334245071459 18.147130920083278 -2.0949721485584223 0 0 0
9787 1 2 0 50.07523668908778 14.298921685069196 -2.164700490550594 0 0 0
6944 1 1 0 51.61292742631957 13.789391091450202 -1.6501527403293512 0 0 0
13564 1 2 0 51.63203458561591 13.844773642154308 -2.5955735611689496e-07 0 0 0
13560 1 2 0 46.900414927314976 17.208933742602813 -7.894087977687096e-08 0 0 0
7027 1 1 0 49.44661323272877 19.293568102599444 -1.627044255988351 0 0 0
13647 1 2 0 49.611826041091106 19.046853453372595 -2.4637925360890817e-07 0 0 0
9797 1 2 0 53.012613611332576 14.625440925417283 -2.1544793742984365 0 0 0
6949 1 1 0 54.56508639739205 15.165475309311509 -1.6493986567652905 0 0 0
9802 1 2 0 55.788721252959824 14.077353682308733 -2.1523037719854314 0 0 0
9805 1 2 0 54.90026041795291 16.774829440946732 -2.135390597772558 0 0 0
6959 1 1 0 55.16565288862745 18.404911197968232 -1.648412920881731 0 0 0
13579 1 2 0 55.220224048245214 18.38629749452024 -3.846067274410699e-07 0 0 0
9821 1 2 0 56.67213661360806 19.070601588698207 -2.1672147624369122 0 0 0
9817 1 2 0 61.09136335972794 14.471612402003695 -2.2176590238083675 0 0 0
6958 1 1 0 62.12731160244076 15.643044975019489 -1.6475451186782235 0 0 0
9819 1 2 0 61.46559984713163 17.049807269043516 -2.20824122691907 0 0 0
6960 1 1 0 61.0474987900792 18.545272442059787 -1.647272000879044 0 0 0
9823 1 2 0 59.4812001454653 18.814056073535095 -2.1750545539896944 0 0 0
9820 1 2 0 63.70600081570791 15.515128556533734 -2.204206881789046 0 0 0
6971 1 1 0 65.24976526227628 15.8726314958511 -1.6470501201321626 0 0 0
9838 1 2 0 66.42848942660967 14.853276853512993 -2.2023440910391563 0 0 0
9840 1 2 0 65.85953310518103 17.29748551442088 -2.2182270404819446 0 0 0
13591 1 2 0 65.17340474831794 15.871791859388967 -1.1092627901483087e-06 0 0 0
7029 1 1 0 66.25579480106862 18.796783944660756 -1.6487744866102891 0 0 0
13649 1 2 0 66.32537662800397 18.80469706999144 1.0137079264168856e-06 0 0 0
6979 1 1 0 70.22326773222699 13.606249481402163 -1.6495115870116033 0 0 0
9853 1 2 0 70.49447319831683 15.198024230195463 -2.162197397654862 0 0 0
9862 1 2 0 70.06600012413708 18.138958263974352 -2.164972707698736 0 0 0
6984 1 1 0 70.89572339128256 16.759836086432173 -1.647786587519466 0 0 0
9858 1 2 0 74.49340127037581 15.284438927731813 -2.1767241471615426 0 0 0
9861 1 2 0 72.42577054635508 17.00455775721468 -2.244622605116499 0 0 0
6985 1 1 0 73.94163315846339 16.77610404146065 -1.651698654139035 0 0 0
6982 1 1 0 75.94269037612453 14.67792610131488 -1.6423310271781693 0 0 0
9863 1 2 0 74.87643457185018 18.012163688809757 -2.250963930552789 0 0 0
13602 1 2 0 75.86782792586038 14.543018299278241 -1.4108067391802961e-06 0 0 0
9870 1 2 0 79.40108063513861 14.423223334147186 -2.207079216936435 0 0 0
9859 1 2 0 77.05322086741496 15.795172220750409 -2.19169030471102 0 0 0
6990 1 1 0 78.60187205577232 15.737729429667969 -1.631443873529502 0 0 0
9871 1 2 0 79.49077555381159 17.052800863340178 -2.0706550209330725 0 0 0
7031 1 1 0 78.9731349650895 18.56960061293558 -1.6323154152037893 0 0 0
7032 1 1 0 76.03121824173124 19.02051085907956 -1.6436857571662784 0 0 0
9935 1 2 0 77.50558018663375 18.733121113062005 -2.334714356708835 0 0 0
6991 1 1 0 80.93790702333294 14.107057449763344 -1.643912232500494 0 0 0
9873 1 2 0 82.0442377808776 15.138525467820347 -2.281853588600744 0 0 0
7033 1 1 0 82.83980204175765 16.450858445765558 -1.6519692203260077 0 0 0
9939 1 2 0 84.36431526108734 16.29351049090839 -2.2540642606902357 0 0 0
7035 1 1 0 85.88875067547266 16.356862029028623 -1.6448112831987443 0 0 0
9938 1 2 0 82.22929664553592 17.87114736745142 -2.235468443531085 0 0 0
7034 1 1 0 81.66564672330935 19.313133218965422 -1.650154955975527 0 0 0
13654 1 2 0 81.68832017760187 19.240426030697876 -3.8696047723561746e-07 0 0 0
9883 1 2 0 86.79662286386716 15.137094458080698 -2.2513252340994674 0 0 0
9941 1 2 0 86.73247066127814 17.65962772927723 -2.189361554129289 0 0 0
6996 1 1 0 86.91627893676691 13.6227767086616 -1.6440209372579315 0 0 0
9879 1 2 0 90.81554259137562 14.499060934156578 -2.305124556545409 0 0 0
7041 1 1 0 91.47829844380671 18.287066575786888 -1.6450475117355154 0 0 0
13614 1 2 0 89.59610881260716 13.961544335442635 -1.9639049151274238e-08 0 0 0
7037 1 1 0 86.47135310354284 19.18578271439275 -1.644824824214271 0 0 0
9949 1 2 0 89.96564493694184 18.700987126871624 -2.1809402675074447 0 0 0
13657 1 2 0 86.42993689446145 19.25935120497958 -1.180481841051147e-06 0 0 0
7001 1 1 0 92.10459119795095 15.322421693332235 -1.657707741820977 0 0 0
9891 1 2 0 91.92326786363637 16.841409968833428 -2.270725093000311 0 0 0
7000 1 1 0 95.05833534129304 14.447835123259374 -1.647466010073997 0 0 0
9889 1 2 0 93.54079703395136 14.739500443185396 -2.2361963988754026 0 0 0
9890 1 2 0 96.11287653179018 15.579953823289893 -2.228963081401178 0 0 0
9905 1 2 0 97.38988327484294 17.920065820145606 -2.2330948204824783 0 0 0
13620 1 2 0 95.03671643955721 14.458569398343128 1.501281117709717e-07 0 0 0
7045 1 1 0 96.63675490819388 19.267760828993826 -1.6449644883050467 0 0 0
9955 1 2 0 95.08165585649823 19.300263885028954 -2.1923119505685404 0 0 0
7010 1 1 0 97.44336023800594 16.37034485298529 -1.6493303896370857 0 0 0
9360 1 2 0 100.83892559839832 13.902955469545265 -2.2259452454629516 0 0 0
6670 1 1 0 100.3413482144254 15.376798973141453 -1.6479197466432707 0 0 0
9362 1 2 0 98.8188648929642 15.663772983638651 -2.2313647066452655 0 0 0
9358 1 2 0 101.32913695181333 16.5819477099897 -2.2064131605031094 0 0 0
6668 1 1 0 102.54621053659196 17.563180145032327 -1.6484495576410765 0 0 0
13630 1 2 0 97.45551976222575 16.340623465986226 -8.03373554355012e-08 0 0 0
9359 1 2 0 102.2310559206592 19.125226442547856 -2.2107315310408664 0 0 0
6823 1 1 0 7.636326678549559 19.457266720899067 -1.636914966403977 0 0 0
9606 1 2 0 6.401407637333316 20.41456926918035 -2.2081419526492176 0 0 0
9608 1 2 0 9.179594291548186 19.62094310881422 -2.2370565971183223 0 0 0
6858 1 1 0 10.74692271264391 19.601419199264804 -1.6490747551992746 0 0 0
9663 1 2 0 11.18853578958608 23.66008864710113 -2.2217206613460077 0 0 0
9659 1 2 0 11.318841681121127 21.029530191716557 -2.2284621175393413 0 0 0
13478 1 2 0 10.700559498027241 19.516171739182173 6.31796047171988e-07 0 0 0
13443 1 2 0 7.7242599549339745 19.638643580762167 -6.572400483744372e-07 0 0 0
6859 1 1 0 7.192023834088208 25.16137095333928 -1.6490053063203902 0 0 0
6860 1 1 0 10.383874317137359 24.994459107345886 -1.6472831572410684 0 0 0
9661 1 2 0 8.779949327475245 24.84445447382448 -2.168458386952778 0 0 0
13480 1 2 0 10.332260040390553 25.051140767497472 -1.4058607462723593e-08 0 0 0
9922 1 2 0 16.077919020900982 21.181072571349745 -2.2313833512843884 0 0 0
6861 1 1 0 12.052665003493768 22.373824440937515 -1.6461866907666016 0 0 0
9665 1 2 0 13.595694636812151 22.308082527968885 -2.237995233964574 0 0 0
7086 1 1 0 15.136485006040614 22.424134473663695 -1.6461508914232321 0 0 0
10016 1 2 0 15.702398896255406 23.886442972390373 -2.181279543801487 0 0 0
7022 1 1 0 16.968906486948978 19.897790331721446 -1.649119204889579 0 0 0
13706 1 2 0 15.14258305265531 22.353182087857824 -3.37760346617293e-07 0 0 0
13642 1 2 0 16.95790529723024 19.939406373593165 1.875728603149322e-09 0 0 0
9921 1 2 0 18.50789768188412 19.93158494654169 -2.2553669589182417 0 0 0
7023 1 1 0 20.02304331033385 20.126690163343426 -1.647324642680339 0 0 0
9923 1 2 0 20.479273188459207 21.600419217163516 -2.222694629962832 0 0 0
7090 1 1 0 21.585522216867865 22.663258370623534 -1.6457244473334607 0 0 0
10020 1 2 0 23.055471281580644 22.207289043863913 -2.2397775662700887 0 0 0
10022 1 2 0 21.13107567853077 24.118115989568587 -2.243368900282698 0 0 0
9920 1 2 0 23.795845656126566 19.362001705656027 -2.2165771184741216 0 0 0
9962 1 2 0 25.59513500214149 21.274112210512104 -2.1295580788441675 0 0 0
7050 1 1 0 25.303556095984682 19.72465192565103 -1.639587382189983 0 0 0
7089 1 1 0 24.567509741581176 22.468827479760684 -1.643077279912843 0 0 0
10021 1 2 0 25.122054020484658 23.869013308671448 -2.273990238735198 0 0 0
13709 1 2 0 24.521084881894186 22.561047162415946 -5.939531329158533e-07 0 0 0
7124 1 1 0 26.23084561202495 24.922524648191995 -1.6467552170202637 0 0 0
13744 1 2 0 26.342880295265275 24.97057447898381 -2.825412337224154e-07 0 0 0
10073 1 2 0 27.706313532683104 24.357903363912527 -2.19739364135966 0 0 0
9766 1 2 0 30.61687237004611 19.695625516418218 -2.1777887479096076 0 0 0
7057 1 1 0 30.97121295621201 21.258650877147364 -1.6461236489659614 0 0 0
9971 1 2 0 32.53721981258052 21.477003601637282 -2.173360439676217 0 0 0
9973 1 2 0 29.97268561658749 22.540566582464415 -2.180193316217144 0 0 0
7056 1 1 0 34.11570917908477 21.589253425241544 -1.6506264812364702 0 0 0
7123 1 1 0 29.25938463634854 23.99185104743512 -1.6476598248845902 0 0 0
9925 1 2 0 35.14643175638626 20.404027011840117 -2.227511998667513 0 0 0
9972 1 2 0 34.65744238992045 23.04021331035522 -2.2608979401944826 0 0 0
7026 1 1 0 38.98821283649751 19.39571773642933 -1.651679436781878 0 0 0
9928 1 2 0 38.83946261949092 20.966257177329812 -2.231147930673005 0 0 0
7059 1 1 0 39.89368521370218 22.055374918047825 -1.6059943746677379 0 0 0
9977 1 2 0 40.0177557037887 23.521570467628358 -2.3391543205441003 0 0 0
7091 1 1 0 34.728953769687976 24.567137148279382 -1.6375824577532787 0 0 0
10025 1 2 0 38.37672437051309 25.154720089502785 -1.434031924379549 0 0 0
7092 1 1 0 39.986901497289644 24.969870673009293 -1.5390119061884908 0 0 0
13711 1 2 0 34.92280117978135 24.417640858889072 -3.542419432559696e-07 0 0 0
9927 1 2 0 43.344061517140965 19.481452780698646 -2.373931778879519 0 0 0
9976 1 2 0 41.38502243190928 21.359143660914004 -2.047820192645667 0 0 0
7060 1 1 0 42.61987923681523 22.318399774423526 -1.512072807180235 0 0 0
9978 1 2 0 42.72796026112983 23.750795650766065 -2.3318795331182227 0 0 0
13645 1 2 0 41.90084406150094 19.621872553952226 -7.376775344723011e-08 0 0 0
9974 1 2 0 44.16300443259797 21.756894380308957 -1.4278686070667828 0 0 0
7058 1 1 0 44.60553831879326 20.153903936923673 -1.5135634383562553 0 0 0
13678 1 2 0 44.80364612662039 19.440961900506956 -1.5880447844652002e-07 0 0 0
13680 1 2 0 42.085413184968886 22.696669395758303 -3.7532535778918156e-07 0 0 0
7130 1 1 0 43.87766585641658 24.66537422714732 -1.56161467233786 0 0 0
10034 1 2 0 45.26579248528475 24.433358365987015 -2.3720795148018996 0 0 0
13750 1 2 0 44.220155519802624 24.22307163431764 -3.681158458258808e-07 0 0 0
9975 1 2 0 46.09854469928299 20.28163983089707 -2.2401588920516367 0 0 0
9930 1 2 0 48.76163184046797 20.72845050152485 -2.100738319314573 0 0 0
7063 1 1 0 47.28956329361321 21.32408632136024 -1.6504064926750475 0 0 0
9982 1 2 0 47.351720693706845 22.870872482195413 -2.251727142377943 0 0 0
9929 1 2 0 51.08038195383224 19.61755305134994 -2.1319642191020503 0 0 0
7097 1 1 0 46.75107246341548 24.288768650910512 -1.6439755599145556 0 0 0
13717 1 2 0 46.8632938420793 24.19026977025194 -3.444871304188845e-08 0 0 0
7028 1 1 0 52.55001219554081 20.372440090930354 -1.6496229305140107 0 0 0
9822 1 2 0 53.87115794454332 19.39867476510531 -2.1289886108209974 0 0 0
9931 1 2 0 52.82923104585575 22.015195617060655 -2.1529808849859666 0 0 0
7096 1 1 0 53.190542528406766 23.61488219125545 -1.653040808340666 0 0 0
10031 1 2 0 52.096895804358624 24.798473583375493 -2.197420188702406 0 0 0
10032 1 2 0 54.67759152796328 24.259743377578015 -2.1907706457270635 0 0 0
10042 1 2 0 57.30374957408367 25.146884110234012 -2.1536928397243127 0 0 0
13648 1 2 0 52.528477133969254 20.43757864495164 9.090351023992535e-07 0 0 0
6961 1 1 0 58.167701904537196 19.71969693338365 -1.648151448244276 0 0 0
9825 1 2 0 58.607250751909106 21.275124254270818 -2.183158621845464 0 0 0
7101 1 1 0 59.71101917069123 22.43100568460521 -1.647290126263063 0 0 0
10040 1 2 0 59.45966594251169 23.94883177610169 -2.251730093808849 0 0 0
9824 1 2 0 62.216119735737024 19.588966329956886 -2.234871024291082 0 0 0
10041 1 2 0 61.29557793049998 22.29599932481451 -2.170803006635514 0 0 0
7104 1 1 0 62.690261352388085 23.050501607167796 -1.61632167793859 0 0 0
13721 1 2 0 59.61629009692045 22.392231029464263 4.650468013547859e-07 0 0 0
13724 1 2 0 62.47530879521068 23.33092562461024 5.509507390886344e-07 0 0 0
13581 1 2 0 58.07321666914654 19.737020577266108 -2.2041621874984437e-10 0 0 0
7067 1 1 0 63.61366628099212 20.280858929040456 -1.6294756816557325 0 0 0
9933 1 2 0 65.02945131092937 19.716496724606106 -2.2655512115261183 0 0 0
9987 1 2 0 63.793362295490596 21.88490130867973 -2.000411111554421 0 0 0
9932 1 2 0 67.71389759045844 19.371739259053175 -2.2119488391783517 0 0 0
10045 1 2 0 63.342694232974786 24.456394492780518 -2.2432860297576958 0 0 0
7030 1 1 0 69.27864202527768 19.550678086581676 -1.6486429162299228 0 0 0
9934 1 2 0 69.84422689842934 21.07501452641164 -2.1699694907842733 0 0 0
9995 1 2 0 69.61804634338114 23.996973637807866 -2.150535007024829 0 0 0
7072 1 1 0 70.43673633791234 22.585141656019665 -1.649806211724488 0 0 0
9994 1 2 0 72.02179947011896 22.713271182178648 -2.2016089927609257 0 0 0
7074 1 1 0 73.4199766906876 23.43968445934661 -1.6460815500996493 0 0 0
9998 1 2 0 73.4834002480647 24.997381999072037 -2.2079750155835165 0 0 0
13694 1 2 0 73.3842439673589 23.310602024581655 4.1515500970139635e-07 0 0 0
13692 1 2 0 70.3842209434338 22.567164175977382 -3.716623178288057e-08 0 0 0
9937 1 2 0 75.74670117916581 20.557148804480597 -2.142094273007538 0 0 0
9996 1 2 0 74.86251748294892 22.88363158161487 -2.243758926323642 0 0 0
7073 1 1 0 76.17328090316894 22.06865428566301 -1.6466107475718197 0 0 0
9936 1 2 0 80.12475230278324 19.603513563885457 -2.2028821297353467 0 0 0
9997 1 2 0 77.67265948413599 22.56561251431022 -2.2367968862599157 0 0 0
7109 1 1 0 78.68056786555732 23.730031163737767 -1.5539955372717649 0 0 0
10053 1 2 0 80.17111948076936 24.07016196995423 -2.251474344779506 0 0 0
10054 1 2 0 77.76967776030801 25.0916345898084 -1.6414767513034085 0 0 0
7038 1 1 0 84.07597921105153 20.85933925464725 -1.6451601642482636 0 0 0
9940 1 2 0 82.5436355800144 20.59484254578651 -2.2122953613636027 0 0 0
9943 1 2 0 85.01456281915877 19.65047078735901 -2.2510350972347357 0 0 0
7108 1 1 0 84.3875888649215 23.772842542257912 -1.646066895411797 0 0 0
9945 1 2 0 84.73810400131437 22.255315312139963 -2.198004455525329 0 0 0
13658 1 2 0 84.04884428148536 20.877992444466724 -2.2620087000921461e-07 0 0 0
13728 1 2 0 84.31898241883962 23.889866333681315 -5.621616310766003e-07 0 0 0
7110 1 1 0 81.53976017122251 24.8354448300017 -1.6500042935354264 0 0 0
10051 1 2 0 82.86991161368597 24.042853093722183 -2.2385928819958925 0 0 0
10052 1 2 0 85.62366533265195 24.729603960979343 -2.2298195298728674 0 0 0
13730 1 2 0 81.44590634587807 24.82744083586293 -4.365025776628125e-07 0 0 0
9944 1 2 0 87.6787459429378 20.12636965378389 -2.2465449745653205 0 0 0
7042 1 1 0 89.21655702369397 20.075092843098698 -1.648020493143424 0 0 0
9951 1 2 0 89.95593448799593 21.445408861022365 -2.204056842504285 0 0 0
10056 1 2 0 87.97471843072054 23.295789360747897 -2.140287681630996 0 0 0
7111 1 1 0 89.52765691007467 22.943218746756816 -1.6457063782914312 0 0 0
10057 1 2 0 90.61260480885932 23.996822647078723 -2.2868711628125546 0 0 0