LAMMPS data file via write_data, version 2 Aug 2023, timestep = 181, units = metal

15576 atoms
2 atom types

7.354570747528936 196.94818154102873 xlo xhi
6.737750268050737 170.86910569575878 ylo yhi
-100 100 zlo zhi

Masses

1 28.085
2 15.999

Atoms # full

9348 1 2 0 9.646328095755285 8.617342281415471 -2.244956901807039 0 0 0
6641 1 1 0 8.280285194387263 9.207703063940668 -1.5209830583906419 0 0 0
6645 1 1 0 10.852614302966941 7.622799639473942 -1.6495258465038978 0 0 0
9355 1 2 0 12.324581240420342 8.11882209674303 -2.2250551884355967 0 0 0
9347 1 2 0 8.139975183130076 10.848961287152799 -1.4654727010176076 0 0 0
9361 1 2 0 12.763008075004317 10.755464933754869 -2.230113185059955 0 0 0
6649 1 1 0 11.693915834862013 11.783689889316397 -1.509120785957212 0 0 0
9350 1 2 0 10.303321788476177 12.001786319857827 -2.3809387677947598 0 0 0
13139 1 2 0 11.33035673689304 11.143917665549528 -3.251831515280417e-07 0 0 0
13135 1 2 0 10.878304196305903 7.607491434328477 -5.20198143490708e-07 0 0 0
6642 1 1 0 8.908602356639088 12.292846719821757 -1.530566871473135 0 0 0
6650 1 1 0 13.32383321652895 9.299366552127237 -1.646645823600528 0 0 0
9363 1 2 0 14.854772850995971 9.073155820664688 -2.222082368607643 0 0 0
9677 1 2 0 17.503677240172262 8.847667488411338 -2.234801499832574 0 0 0
6858 1 1 0 16.25792060517289 9.765331131094095 -1.6510644314283396 0 0 0
9675 1 2 0 16.327856167316945 11.327232943001542 -2.232709996549207 0 0 0
6860 1 1 0 18.625466144547122 7.762730958027149 -1.6495714123771543 0 0 0
9678 1 2 0 20.10286443935896 8.363615403777445 -2.183727123340001 0 0 0
6859 1 1 0 21.596061448950998 8.927862434509501 -1.6482172684594978 0 0 0
9680 1 2 0 22.71169195375515 7.797347928539177 -2.1742414758463613 0 0 0
9679 1 2 0 22.046038070748118 10.470633282296085 -2.1958982900734045 0 0 0
6861 1 1 0 22.451523010749103 12.021494742667802 -1.6469508497983665 0 0 0
13350 1 2 0 18.658015781356024 7.744083260100436 -2.3523087108231027e-07 0 0 0
9702 1 2 0 27.500044037422644 7.683291826562791 -2.148980096708229 0 0 0
6873 1 1 0 28.358213007825878 9.117322600462261 -1.6438554248901243 0 0 0
9700 1 2 0 27.88261884110063 10.670063415634107 -2.1307542756880973 0 0 0
13363 1 2 0 28.27976107173117 9.013066549705405 5.671750820402777e-09 0 0 0
6872 1 1 0 28.006178269428478 12.29201517812152 -1.6432499768905688 0 0 0
13362 1 2 0 28.20336305388871 12.27341651236078 8.4916615469513e-07 0 0 0
9709 1 2 0 32.225808939629985 8.25468968528714 -2.1912263771697393 0 0 0
6962 1 1 0 32.87029885207619 6.842060299950973 -1.648656996281294 0 0 0
9848 1 2 0 34.38775152643118 6.996987399691999 -2.3004215107643793 0 0 0
9703 1 2 0 29.9392513239236 9.22450942680983 -2.1843032652478307 0 0 0
6877 1 1 0 31.47748414349884 9.619692537627973 -1.6449772014953858 0 0 0
9707 1 2 0 32.351468205935696 10.971694021574892 -2.2019072053797024 0 0 0
6876 1 1 0 32.92543460876869 12.430549331514511 -1.530645937278945 0 0 0
6963 1 1 0 35.746549981436544 7.603490965073746 -1.6191842996259886 0 0 0
9731 1 2 0 36.388893760508935 8.982150917472216 -2.2424332121498547 0 0 0
9730 1 2 0 39.183262439728196 8.585702362627401 -2.231495580108224 0 0 0
6890 1 1 0 40.22570207448233 7.4400324639783895 -1.6554274594082747 0 1 0
6889 1 1 0 37.87455549963963 9.442159559227214 -1.6550656552172567 0 0 0
9728 1 2 0 37.93949436904042 11.000632494007936 -2.199379126619027 0 0 0
6888 1 1 0 39.17174985564831 11.938779168376417 -1.6410423297710397 0 0 0
9717 1 2 0 40.55307292575114 11.254931356935149 -2.206538648439259 0 0 0
9724 1 2 0 41.775869542740764 7.614389458941566 -2.2412115764512133 0 0 0
6885 1 1 0 43.20001626753795 7.0409082726854635 -1.6208204430474655 0 0 0
9713 1 2 0 44.3431407553813 8.16683081361685 -2.0298128146886643 0 0 0
9712 1 2 0 42.927811748959186 10.45612791049913 -2.3409902715826756 0 0 0
6879 1 1 0 44.21665844910417 9.755929777216592 -1.6271165104991596 0 0 0
9711 1 2 0 45.56389353430339 10.480680538131766 -2.20851865000057 0 0 0
6881 1 1 0 42.044775013920265 11.654211615068016 -1.6472773514007044 0 0 0
13371 1 2 0 42.048240791765515 11.71213102072097 -2.4676591799846464e-07 0 0 0
9715 1 2 0 47.542720379566035 8.605816111884693 -2.3319280662984148 0 0 0
6886 1 1 0 47.86881584917443 7.144012009567108 -1.6508124110622964 0 0 0
9726 1 2 0 49.3715075818 6.797751183895111 -2.2169391160594136 0 0 0
6893 1 1 0 50.90324613915821 7.037570214909021 -1.6470158758219404 0 0 0
9734 1 2 0 51.61626678981807 8.432022247147483 -2.2364456100724794 0 0 0
6880 1 1 0 47.02924091196795 9.978829650284839 -1.635014450595593 0 0 0
9714 1 2 0 48.0264001352646 11.165113543785264 -2.140367793735281 0 0 0
9733 1 2 0 50.701103314650304 10.977901293197384 -2.1974186349806892 0 0 0
13370 1 2 0 47.00627679919482 9.78241561746131 -2.5160247464629754e-06 0 0 0
13383 1 2 0 50.92871009620476 7.091822726996287 -1.9405098756846417e-06 0 0 0
6891 1 1 0 51.90626392211181 9.967351667239344 -1.647314549549088 0 0 0
6892 1 1 0 50.50668209080163 12.529431048549505 -1.646000220612695 0 0 0
9743 1 2 0 57.10076005699797 8.990733933739389 -2.2337348340358054 0 0 0
6898 1 1 0 56.98018930679691 7.438025066986224 -1.6431548857269667 0 0 0
9735 1 2 0 53.308394335461294 10.65992741407965 -2.2220803529239683 0 0 0
9739 1 2 0 55.84754040429355 11.175060251762165 -2.153444557341455 0 0 0
6897 1 1 0 57.2567934677346 10.540735560209225 -1.6369292766475019 0 0 0
6894 1 1 0 54.41816626101863 11.754727502289938 -1.6386058444372005 0 0 0
13388 1 2 0 56.84099991010692 7.504962119994313 -2.890392170443724e-06 0 0 0
6903 1 1 0 59.86831680111576 7.424174444718363 -1.6497587327161363 0 0 0
9751 1 2 0 59.95399346919655 9.012377956310148 -2.171978190821993 0 0 0
6901 1 1 0 61.15220185658389 10.041913728264234 -1.6438138548476176 0 0 0
9752 1 2 0 62.54769460500312 9.451900562122905 -2.2627883630992023 0 0 0
9744 1 2 0 58.36089223761855 11.6666787190294 -2.217319601660819 0 0 0
9750 1 2 0 60.96929856401538 11.61090329114038 -2.1490335381263015 0 0 0
13393 1 2 0 59.91922322340739 7.420016452941178 -2.1306559738756403e-06 0 0 0
9746 1 2 0 58.42567048709874 6.750852880681158 -2.131878230141808 0 0 0
6902 1 1 0 59.67252067445236 12.532149426778636 -1.6425567814351367 0 0 0
9756 1 2 0 64.7033986888148 8.085493251667573 -2.25846446770831 0 0 0
6908 1 1 0 65.67454532933365 6.895496316961908 -1.6416907511429952 0 0 0
9763 1 2 0 67.16660311801886 7.3962076196557325 -2.131902863836913 0 0 0
6904 1 1 0 64.07367810877085 9.484721349398336 -1.6495005394770412 0 0 0
9755 1 2 0 64.74644738986666 10.884454019933115 -2.227280374245255 0 0 0
6913 1 1 0 68.68049326957141 6.947740968711163 -1.6496012329810674 0 0 0
6905 1 1 0 65.34535600550868 12.310081293002957 -1.6462077573847629 0 0 0
9758 1 2 0 66.87972255445729 12.38720397844018 -2.233801208955712 0 0 0
6912 1 1 0 68.41244181567615 12.264074604370435 -1.6492791764004109 0 0 0
9768 1 2 0 69.68573916781187 8.161215036388896 -2.2191631267394167 0 0 0
9773 1 2 0 74.00177858285774 9.00726739485689 -2.2102592794379485 0 0 0
6918 1 1 0 73.95929986372764 7.517100328089877 -1.4992136028575236 0 0 0
9767 1 2 0 69.06666644414916 10.853921168688787 -2.2179112934681924 0 0 0
6911 1 1 0 70.09720657844868 9.67855868389118 -1.6468425021126754 0 0 0
9769 1 2 0 71.59285315282949 10.12275576523343 -2.2095005346382783 0 0 0
6914 1 1 0 73.14151496166595 10.315565188652407 -1.648539983068076 0 0 0
9772 1 2 0 73.93810617900837 11.63430308422588 -2.2993469048893243 0 0 0
13408 1 2 0 73.24904703143794 7.747883097599032 -1.2909927027056252e-05 0 0 0
13404 1 2 0 73.10500130676834 10.481799309147629 -9.471606393333585e-06 0 0 0
13401 1 2 0 70.07432027533086 9.65487222098615 -3.90343137540675e-06 0 0 0
9780 1 2 0 75.4378610786004 6.8533547998425295 -1.3364487028026386 0 0 0
9791 1 2 0 77.32728344788697 8.39859596780627 -2.322781313578882 0 0 0
9792 1 2 0 79.69425421099828 8.56221797971 -1.5745164790294321 0 0 0
6925 1 1 0 78.31820071553338 9.49318729320912 -1.545990431043281 0 0 0
9789 1 2 0 78.37992470982815 11.041837230791257 -2.1978739240384866 0 0 0
13415 1 2 0 77.77624409779261 9.705886892769287 -2.418676703372926e-05 0 0 0
6926 1 1 0 77.06116323887743 6.957309213880927 -1.513656715261448 0 0 0
13416 1 2 0 77.78023528398626 6.967617874927147 -1.961928313807161e-05 0 0 0
13414 1 2 0 77.38633891839508 12.26070621991424 -2.6682703691289215e-05 0 0 0
6924 1 1 0 78.05511991358124 12.537717308995003 -1.4974814450386411 0 0 0
6929 1 1 0 81.33044701132405 8.648242415593026 -1.5432783566120611 0 0 0
9798 1 2 0 82.0472909950275 7.372194856655719 -2.2605762385827797 0 0 0
9795 1 2 0 81.64060061358926 10.030151744086007 -2.3998030096175005 0 0 0
6927 1 1 0 81.73716774092122 11.397693228539081 -1.5007084452401582 0 0 0
9796 1 2 0 83.332184533137 11.562538484694675 -1.2132346263064653 0 0 0
9804 1 2 0 85.06711604064208 9.316767665641997 -2.1845468724877226 0 0 0
13419 1 2 0 81.95950605394118 8.72926385286501 -1.0540636436726907e-05 0 0 0
13417 1 2 0 80.932902385214 11.262430542829588 -1.0940107480669749e-05 0 0 0
6934 1 1 0 85.64203175704507 7.8356594353605615 -1.6404879660222782 0 0 0
9807 1 2 0 87.22964118889209 7.998577719768105 -2.1328376630419235 0 0 0
6939 1 1 0 88.80659090176893 8.392094796997943 -1.6483090489425678 0 0 0
9814 1 2 0 89.53412961493494 7.08063663032834 -2.311551933827076 0 0 0
6933 1 1 0 85.92929724648504 10.63136636958329 -1.6651255072845126 0 0 0
9805 1 2 0 87.5448300499293 10.819317808099225 -2.053889756909245 0 0 0
9812 1 2 0 89.8951373314699 9.544723740190063 -2.21544589694095 0 0 0
6938 1 1 0 90.68338642842394 10.885548915382603 -1.6371259123595554 0 0 0
9800 1 2 0 85.44428401204794 12.059593269416405 -2.386542756629525 0 0 0
9810 1 2 0 89.80244130114167 12.220963816454187 -2.0912777032793466 0 0 0
6936 1 1 0 88.22978303669906 12.301797394538692 -1.6316896946426034 0 0 0
6945 1 1 0 95.42309643544661 7.0480356791443155 -1.6529257112608364 0 0 0
9822 1 2 0 95.1208225419107 8.597100702635514 -2.201704016740712 0 0 0
9813 1 2 0 92.17548586324172 11.279427030549854 -2.244314953681378 0 0 0
9816 1 2 0 94.73669734533303 11.44224401594466 -2.1846505333187114 0 0 0
6944 1 1 0 95.5896298832163 10.10539587545097 -1.6457647226945284 0 0 0
6940 1 1 0 93.38044568866327 12.279378849476327 -1.65222106873449 0 0 0
6540 1 1 0 100.84892215011396 6.8659576885241185 -1.6415594103447841 0 0 0
9176 1 2 0 100.43721361095942 8.376362396828984 -2.149945533444758 0 0 0
9367 1 2 0 97.16027392089117 10.241917237553864 -2.1735550429131414 0 0 0
9177 1 2 0 99.81255272420144 10.93077942192242 -2.2499032416369618 0 0 0
6539 1 1 0 100.92905276552041 9.86192129733936 -1.6443611332583927 0 0 0
6652 1 1 0 98.31028072524087 11.308380961811583 -1.6475912565698172 0 0 0
13029 1 2 0 100.96884475584962 9.976253896580475 -3.4934895300983833e-06 0 0 0
13030 1 2 0 100.91277306391575 6.74768281991962 -3.4470592983637574e-06 0 0 0
13142 1 2 0 98.37830063343247 11.302109194513813 -3.1611839032533533e-07 0 0 0
9349 1 2 0 7.945148699369477 13.388069803924461 -2.290793541513748 0 0 0
9362 1 2 0 12.306056409321894 13.285667864191455 -1.3819624063334166 0 0 0
9353 1 2 0 7.607070318292845 16.057774987999487 -2.183025102260972 0 0 0
9374 1 2 0 12.836709054281028 15.663175024244584 -2.307192036195988 0 0 0
6656 1 1 0 8.759019878411918 17.1060642229516 -1.6492316044937967 0 0 0
9372 1 2 0 10.194760181670775 16.563599132434362 -2.2883452864020426 0 0 0
6657 1 1 0 11.692727940359624 16.644067832438324 -1.5893220382088884 0 0 0
9375 1 2 0 12.119141687865616 18.230309115956658 -1.749475801338212 0 0 0
13147 1 2 0 11.561958545559412 16.18271346597731 -1.4351753785147905e-06 0 0 0
6857 1 1 0 16.11066845390597 12.863104286401448 -1.6454059973308302 0 0 0
9376 1 2 0 14.787466882372826 13.652971378104072 -2.2938518532211165 0 0 0
9676 1 2 0 17.407330827543863 13.762360766097965 -2.130549851136499 0 0 0
6658 1 1 0 13.521967042820782 14.375968367329937 -1.5056615568239136 0 0 0
6863 1 1 0 17.99820857596293 15.233151617006301 -1.6453068153167998 0 0 0
9686 1 2 0 17.084898518470492 16.4864165551621 -2.267328648671522 0 0 0
13347 1 2 0 15.971105702957123 12.76243664326662 -5.670251874612781e-08 0 0 0
13353 1 2 0 18.00803738539473 15.339689889187625 -9.532853468533244e-08 0 0 0
6950 1 1 0 16.26328460702558 17.79333799040925 -1.6405706829057076 0 0 0
9430 1 2 0 14.694219461930254 17.89816655317189 -2.2009675818656804 0 0 0
9682 1 2 0 21.291946429575464 13.115539680583495 -2.1663817915242576 0 0 0
9683 1 2 0 23.90718976197866 12.678689358988967 -2.1860584400806626 0 0 0
6862 1 1 0 20.9902408558035 14.674378589854141 -1.6479918177108486 0 0 0
9684 1 2 0 19.547225163881944 15.251824416661407 -2.23995171409691 0 0 0
9685 1 2 0 22.179193393111817 15.711913851967642 -2.184062132275926 0 0 0
6871 1 1 0 22.68406116371042 17.20803544348643 -1.6457710652753224 0 0 0
13352 1 2 0 20.945036898470303 14.668735841201757 3.933965225056872e-07 0 0 0
9699 1 2 0 21.713486723980076 18.399940274578107 -2.2693602842971736 0 0 0
6869 1 1 0 25.20161912910345 13.602241383091531 -1.6446196406553544 0 0 0
9696 1 2 0 26.540185148449506 12.812556386051623 -2.185467493771069 0 0 0
9701 1 2 0 29.12044868717436 13.470465831857535 -2.206422798851775 0 0 0
9695 1 2 0 25.42962869821485 15.158141351844227 -2.226225016257205 0 0 0
9697 1 2 0 24.2404842637812 17.51253363823365 -2.1424547887512286 0 0 0
6870 1 1 0 25.62395979124063 16.71312130488337 -1.6454293979964303 0 0 0
9698 1 2 0 26.983085273596817 17.570660824308792 -2.1697012012565837 0 0 0
13359 1 2 0 25.09885707441172 13.687996226329968 -2.1663467604477598e-07 0 0 0
13360 1 2 0 25.71217828985141 16.647253009872447 -6.306672897251354e-07 0 0 0
9705 1 2 0 31.628317695165514 13.419655759725924 -1.5243879469824988 0 0 0
9708 1 2 0 34.12971327887164 13.41685483560457 -2.223958206513613 0 0 0
6875 1 1 0 30.353625012470328 14.439121007348685 -1.5335556427005859 0 0 0
9706 1 2 0 30.98254421018725 15.893242092210878 -2.194973047028472 0 0 0
6961 1 1 0 35.19382754154724 14.603793775102506 -1.6398801789138242 0 0 0
6958 1 1 0 31.84165487668152 17.263699237297722 -1.6424003449605524 0 0 0
13365 1 2 0 29.85190751831616 14.839564144656157 4.1852812030824666e-07 0 0 0
9843 1 2 0 33.370066644914836 17.728041905770375 -2.1851577373496256 0 0 0
6999 1 1 0 34.96019506851065 17.789510151317913 -1.6405789514842843 0 0 0
13489 1 2 0 35.01126535895097 17.9424969725874 -6.397451675974629e-07 0 0 0
9847 1 2 0 35.39136612782895 16.226108769555132 -2.1038696554708927 0 0 0
9729 1 2 0 39.1733135357326 13.47552761808486 -2.2120258683477503 0 0 0
9845 1 2 0 36.66767602219315 14.071886677794735 -2.196488602705241 0 0 0
6960 1 1 0 38.124602159911284 14.62393059298798 -1.6444012120600542 0 0 0
9846 1 2 0 38.814419927276575 16.033832319885548 -2.195775753031509 0 0 0
6966 1 1 0 40.3365965176144 16.444086200869453 -1.6503437307279114 0 0 0
13450 1 2 0 38.01683335582727 14.71442336984426 -4.0252989181267583e-07 0 0 0
13456 1 2 0 40.36182502874654 16.381687686050636 -2.7466071975601234e-07 0 0 0
9853 1 2 0 40.632395306383366 17.954076701211424 -2.2275313376173553 0 0 0
9716 1 2 0 42.61486872985862 13.07682593318259 -2.232800107366905 0 0 0
9721 1 2 0 41.552372836999695 15.503480329128266 -2.2684370175604776 0 0 0
6883 1 1 0 42.78223969493748 14.606736440034393 -1.6474853948434915 0 0 0
9720 1 2 0 44.24824508885729 15.128880730819496 -2.2464468199446754 0 0 0
6884 1 1 0 45.719821316719994 14.684296891872966 -1.631256236448255 0 0 0
9718 1 2 0 46.314153560541165 13.271320377491948 -2.278284328247276 0 0 0
9855 1 2 0 45.80423517585991 17.981941587859616 -2.2854000709850655 0 0 0
6882 1 1 0 47.73781662642571 12.712182837222224 -1.641853307549815 0 0 0
9719 1 2 0 49.16132532897818 13.380027526709029 -2.163441249080386 0 0 0
9736 1 2 0 51.75012904111526 13.488485526867244 -2.1715483202603734 0 0 0
9722 1 2 0 46.968512960339815 15.695782976915755 -2.0122742263634255 0 0 0
9741 1 2 0 50.55387741251765 15.938334145034982 -2.2624329508029812 0 0 0
6895 1 1 0 51.80934399599386 15.064046447540656 -1.6404983127082307 0 0 0
6967 1 1 0 47.14065054958182 17.287751976765062 -1.622747249243589 0 0 0
6968 1 1 0 50.07535965414999 17.402356630948603 -1.6513218638406877 0 0 0
13458 1 2 0 49.9991072406516 17.411840260311326 -1.6054440954703598e-06 0 0 0
13457 1 2 0 47.14595247265309 17.574632082391943 -7.161475706252427e-07 0 0 0
9854 1 2 0 48.5797404860483 17.791388922179813 -2.2658070356056315 0 0 0
9856 1 2 0 51.212044098969976 18.455165395962208 -2.1959706053591264 0 0 0
13385 1 2 0 51.684466160188364 15.089455021231615 1.1221572340333114e-07 0 0 0
9738 1 2 0 54.46488040245644 13.287489642452327 -2.281456258869582 0 0 0
9740 1 2 0 53.281629479922664 15.671884007329377 -2.09221548624326 0 0 0
6896 1 1 0 54.63067536175289 14.798035577115785 -1.6401923294732925 0 0 0
9742 1 2 0 55.93521891913523 15.64818952172505 -2.2179562311927103 0 0 0
6970 1 1 0 56.347200892612655 17.154702403668164 -1.6489914528798673 0 0 0
9858 1 2 0 55.246852310595706 18.253858407893976 -2.218664083396445 0 0 0
9753 1 2 0 59.943181617443045 14.08859023018334 -2.210415041563463 0 0 0
6906 1 1 0 60.87751215858426 15.379047990754817 -1.6500935900245692 0 0 0
9759 1 2 0 62.44372711312235 15.277070953672375 -2.2036783542747056 0 0 0
9857 1 2 0 57.818802598773054 17.56978139912634 -2.254736173280117 0 0 0
9760 1 2 0 60.335104159316 16.86487465235894 -2.1880226976813084 0 0 0
6971 1 1 0 59.28100877127221 18.04263023310146 -1.6487587659345262 0 0 0
6907 1 1 0 63.99984101234918 15.095325544472075 -1.6510683235450456 0 0 0
9757 1 2 0 64.53348663645298 13.63425025182185 -2.229473969848336 0 0 0
9761 1 2 0 65.00499823996894 16.3005928957816 -2.246748904956084 0 0 0
9778 1 2 0 68.54809228634032 16.321501793664478 -2.0876338481935464 0 0 0
6975 1 1 0 65.68437640757077 17.693640507641064 -1.6401798356601494 0 0 0
9865 1 2 0 67.13998998924912 18.32582254418485 -2.1841832584184164 0 0 0
6976 1 1 0 68.65636164977477 17.93097620123548 -1.636189353403956 0 0 0
6915 1 1 0 74.04642196225052 13.114567277591451 -1.5495981232989289 0 0 0
6917 1 1 0 69.55417909248763 15.089711405255597 -1.6477950559159034 0 0 0
9770 1 2 0 69.17609929754373 13.607772796127902 -2.2631939995590793 0 0 0
9776 1 2 0 70.94056768779352 15.67290135375956 -2.3426621690738165 0 0 0
6916 1 1 0 72.37542491870421 15.417916398740045 -1.5863834092484774 0 0 0
9774 1 2 0 72.52308294513432 13.76393429909059 -1.6979631932892776 0 0 0
9777 1 2 0 73.49019422422542 16.4611580381574 -2.2153982046446314 0 0 0
6923 1 1 0 73.73292799026649 17.994101438723103 -1.6422028764412622 0 0 0
9785 1 2 0 77.11173946223795 13.549420549165406 -2.4004637624952534 0 0 0
9790 1 2 0 79.24807204945512 13.658509670804138 -1.2849829598408604 0 0 0
9775 1 2 0 74.90340794872206 14.425972679945009 -2.116039504616596 0 0 0
6921 1 1 0 76.43901774286765 14.9093279294969 -1.658136450719299 0 0 0
9784 1 2 0 76.90328211082854 16.439675776761096 -2.1877861758082693 0 0 0
13411 1 2 0 76.6509719329625 14.945698389551925 -1.4204074939873393e-05 0 0 0
13405 1 2 0 74.56117913786873 12.830289351961545 -5.404417577148479e-06 0 0 0
6922 1 1 0 76.70045948006384 18.044744270751348 -1.6497331208826642 0 0 0
13412 1 2 0 76.84417659071192 17.99441271641625 -3.6138608512797405e-06 0 0 0
9794 1 2 0 81.30038807596571 12.697768180683497 -2.426460444074449 0 0 0
6930 1 1 0 84.33873886028911 12.825340546495767 -1.4477934575461968 0 0 0
6928 1 1 0 80.82063224076542 13.991607152380148 -1.4996256532233665 0 0 0
9797 1 2 0 80.94792492811652 15.44314720793813 -2.2562799738984176 0 0 0
6931 1 1 0 84.35031568779158 15.651350175980184 -1.614116860292426 0 0 0
9799 1 2 0 83.65488705896745 14.190689728088385 -2.054836121978415 0 0 0
6932 1 1 0 81.77565150827715 16.745152012889942 -1.6544840479198109 0 0 0
9801 1 2 0 83.33631901212404 16.779894855983024 -2.2333957565899114 0 0 0
13418 1 2 0 81.59164262036367 14.046512183495274 -8.953984567197282e-06 0 0 0
13422 1 2 0 81.71636944561695 16.737298489687422 -5.750151668041397e-06 0 0 0
9803 1 2 0 81.09647202086519 18.096766134406955 -2.2625532052213297 0 0 0
9802 1 2 0 85.82583977152208 15.664336360992476 -2.2994462006082803 0 0 0
6937 1 1 0 87.24724779401438 15.117640671821208 -1.6477546719704952 0 0 0
9809 1 2 0 87.6404024949126 13.674675297041341 -2.3254777716513715 0 0 0
9811 1 2 0 88.3068982298907 16.242159086132183 -2.181848364544138 0 0 0
6942 1 1 0 88.4334763774741 17.792852163231682 -1.6459109208378084 0 0 0
9819 1 2 0 89.9119863466337 18.158687611805025 -2.2561689405299727 0 0 0
9815 1 2 0 93.26176960341186 13.885190741820033 -2.185959706561297 0 0 0
6941 1 1 0 93.3764538450214 15.492036370539541 -1.6484554504348257 0 0 0
9818 1 2 0 94.80867394436476 16.138037382801635 -2.190644705729626 0 0 0
9817 1 2 0 92.22557508387453 16.60352744182355 -2.2051547173865442 0 0 0
6948 1 1 0 96.32222292815912 16.547242732760928 -1.648567204537618 0 0 0
6943 1 1 0 91.4413385731494 17.982225295731375 -1.6426878181034925 0 0 0
9366 1 2 0 97.82059482056168 12.787843105044487 -2.2049246016313253 0 0 0
9368 1 2 0 97.36405332946632 15.427904671816629 -2.2776657570185774 0 0 0
6653 1 1 0 98.32940903626512 14.254006960936277 -1.6462450577520196 0 0 0
9364 1 2 0 99.88724276788021 14.396353622907057 -2.1918574322718563 0 0 0
6651 1 1 0 100.99410994440296 15.48823105941656 -1.6436025228721185 0 0 0
9365 1 2 0 100.42520361789069 16.970492640450242 -2.1374214823986755 0 0 0
13141 1 2 0 101.08855338112808 15.449675997017463 -3.24485151757164e-06 0 0 0
9828 1 2 0 96.85598607828463 18.01617250939973 -2.2129373714447227 0 0 0
6661 1 1 0 101.15871059413125 18.375573758044684 -1.6547480261572385 0 0 0
9373 1 2 0 8.344453303074307 18.59952515782088 -2.2243262785704894 0 0 0
6689 1 1 0 7.405152921628985 19.843392451948798 -1.649481016230667 0 0 0
6693 1 1 0 9.40669084847973 22.101976226413658 -1.6497744257935243 0 0 0
9422 1 2 0 8.089626354399098 21.252756241383267 -2.208796228666897 0 0 0
9427 1 2 0 10.786250633872553 21.352905551434525 -2.1918650943215003 0 0 0
6695 1 1 0 12.329554314397017 21.638678144320245 -1.6530973524910257 0 0 0
13185 1 2 0 12.379041949311157 21.580720903566757 -4.056288357924381e-08 0 0 0
9431 1 2 0 12.701083874595755 23.175433905314122 -2.169509546612243 0 0 0
9428 1 2 0 9.430232245104063 23.67897778064105 -2.1986938679766572 0 0 0
6694 1 1 0 13.582082898221119 18.97716465372049 -1.578585016721099 0 0 0
9429 1 2 0 13.37909281012335 20.485795406431944 -2.2658581039920116 0 0 0
9830 1 2 0 16.820942704676906 19.251188965190796 -2.1753672531977752 0 0 0
6991 1 1 0 17.94797228744119 20.321163144158938 -1.6427394896877001 0 0 0
9888 1 2 0 17.566308936953632 21.812942467764895 -2.256610792677982 0 0 0
13481 1 2 0 18.007419416957912 20.41251927721504 -4.0166813267087023e-07 0 0 0
13508 1 2 0 16.909193459666536 23.141320205333873 -1.3491447156244579e-07 0 0 0
13184 1 2 0 14.007795682465291 19.231835748519337 -7.705922912518219e-08 0 0 0
7018 1 1 0 16.839389816075357 23.1779086699918 -1.653700191518017 0 0 0
7019 1 1 0 13.962805459871143 24.109316195429702 -1.6435422520584873 0 0 0
9927 1 2 0 15.28221102810695 23.26883137150319 -2.191474939194596 0 0 0
13509 1 2 0 14.00406435860535 24.225563002225925 -8.669241235056728e-07 0 0 0
9886 1 2 0 19.339564359308714 19.661165014280837 -2.237402255219929 0 0 0
6990 1 1 0 20.875103759328724 19.68322715924825 -1.6476742983888373 0 0 0
9887 1 2 0 21.41352919319801 21.147164909937892 -2.1944387026026027 0 0 0
6998 1 1 0 22.662564824700034 22.060739079174397 -1.6468802754873837 0 0 0
13488 1 2 0 22.676432027345076 22.145098883578314 -1.9525168819783703e-07 0 0 0
9897 1 2 0 23.99891219717357 21.273429985448843 -2.1870714600890047 0 0 0
9899 1 2 0 22.566978098377135 23.591855851157366 -2.286053603073499 0 0 0
6957 1 1 0 27.493228414586465 19.102414552039583 -1.6492888460586372 0 0 0
9841 1 2 0 26.304340292275366 20.081691008885787 -2.2491649295258025 0 0 0
9840 1 2 0 28.877760961641204 19.89361914147077 -2.1836661726095303 0 0 0
6997 1 1 0 25.54385764625173 21.39461653323986 -1.6445490792566548 0 0 0
9898 1 2 0 26.138230434950348 22.783573105996716 -2.314245866372333 0 0 0
13487 1 2 0 25.660425251835346 21.428743056959693 -4.494707356234382e-07 0 0 0
7021 1 1 0 26.64032409367104 24.18207157431345 -1.6446363085441016 0 0 0
6959 1 1 0 30.46211385689294 20.07256074920695 -1.643006173533628 0 0 0
9842 1 2 0 31.023958223171675 18.6034226853817 -2.1562891120584555 0 0 0
9844 1 2 0 31.394352509109943 21.387236836548183 -2.2078776487086733 0 0 0
7022 1 1 0 32.43230756459654 22.60972852464407 -1.6407712194552833 0 0 0
9934 1 2 0 34.0299742760686 22.485862554513066 -2.1092383049265515 0 0 0
13449 1 2 0 30.469206727509615 20.221742808519654 -6.460297261873706e-08 0 0 0
9933 1 2 0 32.2049334498109 24.151208546549174 -2.2408438323690376 0 0 0
9900 1 2 0 35.957624009818275 19.108547632907555 -2.1731767442785412 0 0 0
9939 1 2 0 36.470817129510785 22.036897992870085 -2.1267597931632163 0 0 0
7025 1 1 0 36.90063951512725 20.47458497310382 -1.6482768453752987 0 0 0
9938 1 2 0 38.514321186265036 20.57609562720659 -2.18008556594453 0 0 0
7026 1 1 0 39.90311658992068 21.37216691049497 -1.6417198552350785 0 0 0
9940 1 2 0 40.4723851643637 22.873528927522305 -2.194387617796266 0 0 0
13515 1 2 0 36.855186056571156 20.36137648746213 -5.524890705844027e-07 0 0 0
7070 1 1 0 35.44825343054612 23.266414405379894 -1.638786842770788 0 0 0
9905 1 2 0 41.210149907295246 20.482813355397578 -2.141303995493412 0 0 0
7002 1 1 0 41.74951508823444 19.019070031304377 -1.641458153950741 0 0 0
9904 1 2 0 43.256617383628075 18.767250256158704 -2.2763965598643696 0 0 0
7003 1 1 0 44.75033196621512 19.081528102192372 -1.6485742125915843 0 0 0
9906 1 2 0 45.305479681920374 20.529427402205695 -2.213289673731777 0 0 0
9946 1 2 0 46.1349471227191 22.97609050509771 -2.1641250803873753 0 0 0
10008 1 2 0 43.37502303480868 22.929433793605998 -2.089518162510139 0 0 0
13492 1 2 0 41.82919738396914 18.924427238587654 -1.6772619848515107e-07 0 0 0
7071 1 1 0 41.88805344197096 23.60456848740484 -1.6539481824224438 0 0 0
7072 1 1 0 44.76692718957677 23.75285905195174 -1.643406434679192 0 0 0
13562 1 2 0 44.74718292362787 23.83099250979623 -1.7688179867299975e-07 0 0 0
13561 1 2 0 41.746392264116906 23.70829753615627 -2.549004434008997e-07 0 0 0
7004 1 1 0 51.80104535881291 19.89309578341143 -1.6448366661649914 0 0 0
7030 1 1 0 46.53749659310076 21.4638309678994 -1.6427070495862397 0 0 0
9945 1 2 0 48.042393901349286 21.067463716430233 -2.2327380253274267 0 0 0
7031 1 1 0 49.43602333417435 21.763630281066135 -1.6469359463928837 0 0 0
9908 1 2 0 50.803621520419235 21.064581390070447 -2.2516412984626024 0 0 0
9947 1 2 0 49.471319064229604 23.339411832929688 -2.1599321717897353 0 0 0
9907 1 2 0 53.31622579100409 20.08814159435837 -2.261465747851744 0 0 0
7005 1 1 0 54.8176928808029 19.742197576145394 -1.6530410361956347 0 0 0
9909 1 2 0 55.928896113935465 20.87310276630685 -2.198495680868892 0 0 0
7034 1 1 0 55.82141646254823 22.434971829573623 -1.6264450980588805 0 0 0
9952 1 2 0 54.28723554826078 22.89004961649295 -2.0312373814360924 0 0 0
10016 1 2 0 52.06222499095025 24.16298487358684 -2.2984462899582927 0 0 0
7077 1 1 0 53.55487996894226 24.30888663038765 -1.629950777353221 0 0 0
9951 1 2 0 56.84968380836628 23.601959464480426 -2.2079218348538823 0 0 0
9859 1 2 0 59.55956929195177 19.59165663521183 -2.220349940555217 0 0 0
9911 1 2 0 59.11471451075898 22.431597617710562 -2.2001386386686286 0 0 0
7006 1 1 0 59.96074495277393 21.10872733699088 -1.6475309757043417 0 0 0
9910 1 2 0 61.451854361953636 21.43406503961467 -2.2775502828685017 0 0 0
7008 1 1 0 62.747181061449226 22.211405734103483 -1.64431398306687 0 0 0
7035 1 1 0 58.41046871971818 23.834523634283393 -1.6452616388421988 0 0 0
9914 1 2 0 62.97328390555379 23.79836690655097 -2.0967552327210037 0 0 0
7007 1 1 0 65.19249854847125 20.49313707509966 -1.6459185888155534 0 0 0
9866 1 2 0 64.74680617299344 18.97319560699182 -2.132427401567753 0 0 0
9912 1 2 0 64.02039449828483 21.42322933988453 -2.306743469784747 0 0 0
9913 1 2 0 66.63637249270593 21.1971367723139 -2.129180169524536 0 0 0
7041 1 1 0 66.94410030108968 22.76488437621425 -1.6448328655026216 0 0 0
9963 1 2 0 65.76421340486769 23.778857496684843 -2.217815709076242 0 0 0
9962 1 2 0 68.3935783679443 23.266354559441222 -2.2729897085434687 0 0 0
9867 1 2 0 69.81585534550025 18.988187992133362 -2.2341843721460966 0 0 0
7009 1 1 0 71.21060307569552 19.734097235419675 -1.65006388176586 0 0 0
9788 1 2 0 72.50280257241559 18.89712670692619 -2.243402483778609 0 0 0
9915 1 2 0 71.55336647037946 21.264061814590796 -2.2236001590908896 0 0 0
7040 1 1 0 72.1600265051399 22.705808546678046 -1.6435874021661305 0 0 0
7042 1 1 0 69.5656177185457 24.2581751372656 -1.6457740025315462 0 0 0
9960 1 2 0 71.05542210639021 23.809170866685168 -2.1829395675027423 0 0 0
9961 1 2 0 73.64684975857854 23.300629703841498 -2.175641912490318 0 0 0
9786 1 2 0 75.20200694319341 18.516427378462208 -2.200815367146005 0 0 0
9787 1 2 0 77.69396744243521 19.291376734620844 -2.2179729584188475 0 0 0
6980 1 1 0 78.5853483348375 20.603970855735316 -1.6386162594878608 0 0 0
9873 1 2 0 78.42826041023164 22.212538026032544 -2.1316036418132462 0 0 0
13470 1 2 0 78.4050348776674 20.542530797514274 -3.978383041205406e-06 0 0 0
7049 1 1 0 79.41910309012957 23.505614728182657 -1.6466217326973023 0 0 0
13539 1 2 0 79.5378543981604 23.419028626970956 -1.3464664856165257e-06 0 0 0
9871 1 2 0 80.12959960408894 20.448822377998624 -2.199086737967173 0 0 0
6979 1 1 0 81.40308830576139 19.597199349214815 -1.6454216672948805 0 0 0
9872 1 2 0 82.76899366915653 20.266690108368234 -2.255928340860622 0 0 0
9916 1 2 0 85.29144284452111 20.758087483984593 -2.2693658720130654 0 0 0
9918 1 2 0 83.55257207914124 22.887194352819247 -2.1697133919748235 0 0 0
7011 1 1 0 83.87302439962853 21.341009539013438 -1.649745841124131 0 0 0
13469 1 2 0 81.47242975355485 19.58114892061645 -3.688628036737003e-06 0 0 0
13501 1 2 0 83.88679074841399 21.327023858016545 -2.701227460763012e-06 0 0 0
9976 1 2 0 80.99896435931235 23.77613461604047 -2.198968333230842 0 0 0
7082 1 1 0 82.55552961453597 24.126867079456872 -1.6479003429156505 0 0 0