324
Lattice="22.57618995100402 0.0 0.0 0.0 39.10310853950386 0.0 0.0 0.0 100.0" Properties=species:S:1:pos:R:3:forces:R:3 energy=-62631.932861328125 stress="4.245536366909164e-09 5.8097301275372715e-11 -0.0 5.8097301275372715e-11 6.096254168141968e-09 -0.0 -0.0 -0.0 -0.0" free_energy=-62631.932861328125 pbc="T T T"
B        0.62721380       0.72425179       3.49997020      -0.00003033      -0.00000705       0.00000000
N        1.88144589       1.44838381       3.49997020       0.00012194      -0.00002475       0.00000000
B        1.88144660       2.89664684       3.49997020      -0.00014595      -0.00003304       0.00000000
N        0.62721339       3.62077857       3.49997020       0.00014567       0.00000624       0.00000000
B        0.62721375       5.06904169       3.49997020      -0.00007769       0.00000663       0.00000000
N        1.88144566       5.79317348       3.49997020       0.00002612      -0.00000608       0.00000000
B        1.88144603       7.24143652       3.49997020      -0.00001070       0.00004267       0.00000000
N        0.62721245       7.96556808       3.49997020       0.00009639       0.00000873       0.00000000
B        0.62721300       9.41383085       3.49997020       0.00004489      -0.00001117       0.00000000
N        1.88144601      10.13796263       3.49997020       0.00006855       0.00013505       0.00000000
B        1.88144583      11.58622653       3.49997020       0.00003835      -0.00017356       0.00000000
N        0.62721331      12.31035764       3.49997020       0.00007028       0.00000729       0.00000000
B        0.62721257      13.75862063       3.49997020       0.00017032       0.00010323       0.00000000
N        1.88144565      14.48275216       3.49997020       0.00000840       0.00000593       0.00000000
B        1.88144575      15.93101635       3.49997020       0.00006006       0.00002262       0.00000000
N        0.62721389      16.65514690       3.49997020      -0.00012489      -0.00011040       0.00000000
B        0.62721319      18.10341251       3.49997020       0.00011347       0.00002819       0.00000000
N        1.88144727      18.82754272       3.49997020      -0.00006100      -0.00008136       0.00000000
B        1.88144575      20.27580563       3.49997020       0.00006916      -0.00001966       0.00000000
N        0.62721335      20.99993808       3.49997020       0.00003592       0.00001880       0.00000000
B        0.62721317      22.44820033       3.49997020       0.00003917      -0.00001288       0.00000000
N        1.88144604      23.17233291       3.49997020       0.00003459       0.00013419       0.00000000
B        1.88144685      24.62059696       3.49997020      -0.00004940      -0.00011178       0.00000000
N        0.62721316      25.34472750       3.49997020      -0.00003268       0.00023926       0.00000000
B        0.62721356      26.79299128       3.49997020       0.00007637      -0.00021840       0.00000000
N        1.88144631      27.51712191       3.49997020      -0.00007113       0.00007568       0.00000000
B        1.88144570      28.96538546       3.49997020       0.00015096      -0.00001620       0.00000000
N        0.62721305      29.68951724       3.49997020      -0.00003756       0.00000781       0.00000000
B        0.62721324      31.13778005       3.49997020       0.00010811       0.00005355       0.00000000
N        1.88144648      31.86191262       3.49997020      -0.00006175      -0.00004135       0.00000000
B        1.88144606      33.31017743       3.49997020       0.00020722      -0.00006403       0.00000000
N        0.62721341      34.03430425       3.49997020       0.00001196       0.00024261       0.00000000
B        0.62721299      35.48257249       3.49997020       0.00005994       0.00008533       0.00000000
N        1.88144606      36.20670156       3.49997020      -0.00001546      -0.00019559       0.00000000
B        1.88144567      37.65496420       3.49997020      -0.00002233       0.00036570       0.00000000
N        0.62721264      38.37909827       3.49997020       0.00011244      -0.00025667       0.00000000
B        3.13567934       0.72425233       3.49997020      -0.00012874      -0.00006062       0.00000000
N        4.38991154       1.44838425       3.49997020       0.00008386      -0.00004523       0.00000000
B        4.38991173       2.89664685       3.49997020       0.00010167       0.00011188       0.00000000
N        3.13567851       3.62077905       3.49997020       0.00009541      -0.00008920       0.00000000
B        3.13567885       5.06904196       3.49997020       0.00001390       0.00014783       0.00000000
N        4.38991197       5.79317429       3.49997020       0.00004003      -0.00009486       0.00000000
B        4.38991239       7.24143707       3.49997020      -0.00004539       0.00004884       0.00000000
N        3.13567916       7.96556844       3.49997020       0.00006441      -0.00002157       0.00000000
B        3.13568042       9.41383179       3.49997020      -0.00014446      -0.00010195       0.00000000
N        4.38991190      10.13796325       3.49997020       0.00003707       0.00015243       0.00000000
B        4.38991223      11.58622603       3.49997020      -0.00002787      -0.00002461       0.00000000
N        3.13567910      12.31035807       3.49997020       0.00002385      -0.00002342       0.00000000
B        3.13567904      13.75862072       3.49997020       0.00000131       0.00018629       0.00000000
N        4.38991118      14.48275411       3.49997020       0.00010433      -0.00009712       0.00000000
B        4.38991293      15.93101705       3.49997020      -0.00016982      -0.00007398       0.00000000
N        3.13567932      16.65514851       3.49997020       0.00000200      -0.00008215       0.00000000
B        3.13567987      18.10341270       3.49997020      -0.00005242       0.00002822       0.00000000
N        4.38991129      18.82754261       3.49997020       0.00010953      -0.00003936       0.00000000
B        4.38991355      20.27580660       3.49997020      -0.00008392      -0.00002542       0.00000000
N        3.13567982      20.99993843       3.49997020       0.00001711       0.00006320       0.00000000
B        3.13568071      22.44820280       3.49997020      -0.00017091      -0.00017385       0.00000000
N        4.38991219      23.17233319       3.49997020       0.00005465       0.00013010       0.00000000
B        4.38991304      24.62059644       3.49997020      -0.00008279      -0.00005130       0.00000000
N        3.13567993      25.34472724       3.49997020      -0.00002961       0.00020643       0.00000000
B        3.13567896      26.79299277       3.49997020       0.00002417      -0.00022612       0.00000000
N        4.38991229      27.51712331       3.49997020      -0.00001391      -0.00003608       0.00000000
B        4.38991287      28.96538588       3.49997020      -0.00011120       0.00004267       0.00000000
N        3.13567944      29.68951829       3.49997020      -0.00011999      -0.00000807       0.00000000
B        3.13567945      31.13778093       3.49997020       0.00003115       0.00003816       0.00000000
N        4.38991163      31.86191315       3.49997020       0.00002489      -0.00010353       0.00000000
B        4.38991250      33.31017766       3.49997020      -0.00025234      -0.00007169       0.00000000
N        3.13567842      34.03430530       3.49997020      -0.00007709       0.00038522       0.00000000
B        3.13567931      35.48257291       3.49997020      -0.00003208      -0.00048686       0.00000000
N        4.38991145      36.20670069       3.49997020       0.00007868       0.00024806       0.00000000
B        4.38991251      37.65496465       3.49997020      -0.00011279       0.00013252       0.00000000
N        3.13567892      38.37909840       3.49997020       0.00009685      -0.00019241       0.00000000
B        5.64414459       0.72425304       3.49997020       0.00003052      -0.00000332       0.00000000
N        6.89837738       1.44838506       3.49997020      -0.00003846      -0.00002872       0.00000000
B        6.89837818       2.89664779       3.49997020      -0.00013708       0.00010008       0.00000000
N        5.64414470       3.62077959       3.49997020       0.00007027      -0.00008440       0.00000000
B        5.64414495       5.06904301       3.49997020      -0.00009885      -0.00007022       0.00000000
N        6.89837774       5.79317482       3.49997020       0.00005114       0.00001625       0.00000000
B        6.89837814       7.24143772       3.49997020      -0.00008266       0.00007682       0.00000000
N        5.64414454       7.96556928       3.49997020       0.00008811       0.00001047       0.00000000
B        5.64414450       9.41383218       3.49997020       0.00001190      -0.00012251       0.00000000
N        6.89837749      10.13796395       3.49997020       0.00000073       0.00007828       0.00000000
B        6.89837815      11.58622705       3.49997020      -0.00004768      -0.00005449       0.00000000
N        5.64414436      12.31035899       3.49997020       0.00008329       0.00004480       0.00000000
B        5.64414592      13.75862104       3.49997020      -0.00017456       0.00009207       0.00000000
N        6.89837726      14.48275427       3.49997020       0.00007008      -0.00015325       0.00000000
B        6.89837813      15.93101720       3.49997020      -0.00005905       0.00002702       0.00000000
N        5.64414436      16.65514914       3.49997020       0.00009855      -0.00011305       0.00000000
B        5.64414501      18.10341228       3.49997020      -0.00005214       0.00019572       0.00000000
N        6.89837714      18.82754468       3.49997020       0.00006397      -0.00013310       0.00000000
B        6.89837786      20.27580711       3.49997020       0.00000710      -0.00002312       0.00000000
N        5.64414479      20.99993900       3.49997020       0.00003467       0.00011566       0.00000000
B        5.64414508      22.44820124       3.49997020       0.00008030      -0.00015329       0.00000000
N        6.89837745      23.17233411       3.49997020       0.00004816       0.00004363       0.00000000
B        6.89837731      24.62059755       3.49997020       0.00008841      -0.00009392       0.00000000
N        5.64414532      25.34472739       3.49997020      -0.00005697       0.00016144       0.00000000
B        5.64414462      26.79299197       3.49997020       0.00010412      -0.00000295       0.00000000
N        6.89837784      27.51712255       3.49997020      -0.00002302       0.00011739       0.00000000
B        6.89837735      28.96538743       3.49997020      -0.00003442      -0.00017957       0.00000000
N        5.64414498      29.68951830       3.49997020       0.00004950       0.00000921       0.00000000
B        5.64414525      31.13778088       3.49997020      -0.00005185       0.00013320       0.00000000
N        6.89837677      31.86191351       3.49997020       0.00015518      -0.00009195       0.00000000
B        6.89837767      33.31017820       3.49997020      -0.00006146      -0.00014310       0.00000000
N        5.64414442      34.03430607       3.49997020       0.00012553       0.00024837       0.00000000
B        5.64414488      35.48257223       3.49997020      -0.00001303       0.00003689       0.00000000
N        6.89837699      36.20670168       3.49997020       0.00007506      -0.00019833       0.00000000
B        6.89837753      37.65496697       3.49997020       0.00000938       0.00007537       0.00000000
N        5.64414397      38.37909803       3.49997020      -0.00000099      -0.00012551       0.00000000
B        8.15260958       0.72425338       3.49997020       0.00002832      -0.00002639       0.00000000
N        9.40684319       1.44838571       3.49997020      -0.00006413      -0.00007094       0.00000000
B        9.40684206       2.89664822       3.49997020       0.00012634       0.00006393       0.00000000
N        8.15261026       3.62078007       3.49997020       0.00001330      -0.00007535       0.00000000
B        8.15261024       5.06904297       3.49997020      -0.00001296      -0.00002253       0.00000000
N        9.40684348       5.79317574       3.49997020      -0.00005019      -0.00004874       0.00000000
B        9.40684354       7.24143855       3.49997020      -0.00014090       0.00006201       0.00000000
N        8.15261019       7.96556984       3.49997020       0.00002700       0.00002198       0.00000000
B        8.15261007       9.41383262       3.49997020       0.00009549      -0.00004447       0.00000000
N        9.40684367      10.13796492       3.49997020      -0.00009312      -0.00002777       0.00000000
B        9.40684343      11.58622836       3.49997020       0.00003980      -0.00010274       0.00000000
N        8.15261076      12.31035922       3.49997020      -0.00005114       0.00009441       0.00000000
B        8.15261045      13.75862163       3.49997020      -0.00000669       0.00003588       0.00000000
N        9.40684284      14.48275487       3.49997020      -0.00005851      -0.00010067       0.00000000
B        9.40684309      15.93101719       3.49997020       0.00003590       0.00003413       0.00000000
N        8.15260983      16.65514850       3.49997020       0.00003095      -0.00003059       0.00000000
B        8.15261047      18.10341220       3.49997020      -0.00003343       0.00018534       0.00000000
N        9.40684356      18.82754426       3.49997020      -0.00004251      -0.00009768       0.00000000
B        9.40684319      20.27580664       3.49997020      -0.00002983      -0.00001716       0.00000000
N        8.15260981      20.99993922       3.49997020       0.00004329       0.00008393       0.00000000
B        8.15261046      22.44820155       3.49997020      -0.00012581      -0.00013961       0.00000000
N        9.40684337      23.17233421       3.49997020       0.00004886       0.00006218       0.00000000
B        9.40684345      24.62059619       3.49997020      -0.00015483       0.00002809       0.00000000
N        8.15261015      25.34472995       3.49997020       0.00000033      -0.00004813       0.00000000
B        8.15261009      26.79299283       3.49997020       0.00003633      -0.00003446       0.00000000
N        9.40684283      27.51712364       3.49997020       0.00004106       0.00005582       0.00000000
B        9.40684325      28.96538850       3.49997020       0.00002793      -0.00025977       0.00000000
N        8.15260982      29.68951804       3.49997020       0.00008169       0.00012172       0.00000000
B        8.15261045      31.13778146       3.49997020      -0.00017940       0.00007673       0.00000000
N        9.40684351      31.86191327       3.49997020       0.00003642      -0.00003238       0.00000000
B        9.40684300      33.31017805       3.49997020       0.00000116       0.00012638       0.00000000
N        8.15260916      34.03430567       3.49997020       0.00010951       0.00021702       0.00000000
B        8.15260995      35.48257219       3.49997020      -0.00000251       0.00013692       0.00000000
N        9.40684284      36.20670133       3.49997020      -0.00010676      -0.00023075       0.00000000
B        9.40684386      37.65496749       3.49997020       0.00004656       0.00011750       0.00000000
N        8.15260969      38.37909735       3.49997020      -0.00004203       0.00001340       0.00000000
B       10.66107645       0.72425368       3.49997020      -0.00001421      -0.00010785       0.00000000
N       11.91530863       1.44838585       3.49997020      -0.00005610      -0.00003784       0.00000000
B       11.91530913       2.89664823       3.49997020       0.00003155       0.00010568       0.00000000
N       10.66107611       3.62078047       3.49997020      -0.00014458      -0.00000736       0.00000000
B       10.66107562       5.06904359       3.49997020       0.00007243      -0.00011960       0.00000000
N       11.91530941       5.79317482       3.49997020      -0.00002173       0.00003251       0.00000000
B       11.91530866       7.24143841       3.49997020       0.00009860      -0.00005285       0.00000000
N       10.66107605       7.96557020       3.49997020      -0.00003245      -0.00000526       0.00000000
B       10.66107569       9.41383218       3.49997020       0.00001854       0.00019570       0.00000000
N       11.91530848      10.13796525       3.49997020       0.00004316      -0.00003294       0.00000000
B       11.91530806      11.58622834       3.49997020       0.00002979      -0.00008294       0.00000000
N       10.66107531      12.31035897       3.49997020       0.00000079       0.00010859       0.00000000
B       10.66107592      13.75862231       3.49997020       0.00010749       0.00003183       0.00000000
N       11.91530879      14.48275432       3.49997020       0.00002335      -0.00008289       0.00000000
B       11.91530918      15.93101776       3.49997020       0.00009712       0.00000223       0.00000000
N       10.66107613      16.65514980       3.49997020      -0.00006968      -0.00013850       0.00000000
B       10.66107585      18.10341306       3.49997020       0.00003048       0.00019083       0.00000000
N       11.91530909      18.82754376       3.49997020       0.00002346      -0.00004764       0.00000000
B       11.91530806      20.27580627       3.49997020       0.00002421      -0.00002769       0.00000000
N       10.66107555      20.99993970       3.49997020       0.00004234       0.00014828       0.00000000
B       10.66107586      22.44820260       3.49997020      -0.00000872      -0.00021976       0.00000000
N       11.91530892      23.17233441       3.49997020       0.00006588       0.00007602       0.00000000
B       11.91530907      24.62059757       3.49997020      -0.00002857      -0.00002992       0.00000000
N       10.66107503      25.34472909       3.49997020       0.00021112       0.00005006       0.00000000
B       10.66107678      26.79299219       3.49997020      -0.00007733       0.00014829       0.00000000
N       11.91530822      27.51712424       3.49997020       0.00006033       0.00000920       0.00000000
B       11.91530778      28.96538852       3.49997020       0.00001532      -0.00025449       0.00000000
N       10.66107678      29.68951844       3.49997020       0.00000457       0.00020977       0.00000000
B       10.66107561      31.13778254       3.49997020       0.00005845      -0.00008128       0.00000000
N       11.91530878      31.86191461       3.49997020      -0.00001667       0.00002753       0.00000000
B       11.91530863      33.31017704       3.49997020       0.00000536       0.00016279       0.00000000
N       10.66107578      34.03430913       3.49997020       0.00001525      -0.00034674       0.00000000
B       10.66107618      35.48257143       3.49997020       0.00008035       0.00032692       0.00000000
N       11.91530811      36.20670327       3.49997020      -0.00002656      -0.00022518       0.00000000
B       11.91530851      37.65496741       3.49997020       0.00007064       0.00004808       0.00000000
N       10.66107611      38.37909712       3.49997020      -0.00012271       0.00000011       0.00000000
B       13.16954135       0.72425438       3.49997020       0.00010160      -0.00012101       0.00000000
N       14.42377429       1.44838555       3.49997020       0.00003789      -0.00002345       0.00000000
B       14.42377408       2.89664863       3.49997020      -0.00004732      -0.00004330       0.00000000
N       13.16954154       3.62078093       3.49997020      -0.00003544      -0.00008427       0.00000000
B       13.16954137       5.06904307       3.49997020      -0.00000618      -0.00003102       0.00000000
N       14.42377495       5.79317456       3.49997020      -0.00009118       0.00005037       0.00000000
B       14.42377343       7.24143748       3.49997020       0.00003224       0.00006115       0.00000000
N       13.16954085       7.96557002       3.49997020      -0.00000286       0.00002007       0.00000000
B       13.16954167       9.41383323       3.49997020      -0.00010089      -0.00000316       0.00000000
N       14.42377461      10.13796439       3.49997020      -0.00007293       0.00014324       0.00000000
B       14.42377446      11.58622701       3.49997020      -0.00007709      -0.00003433       0.00000000
N       13.16954146      12.31035939       3.49997020       0.00002115       0.00008250       0.00000000
B       13.16954150      13.75862344       3.49997020      -0.00014134       0.00000253       0.00000000
N       14.42377396      14.48275398       3.49997020       0.00008642       0.00001060       0.00000000
B       14.42377426      15.93101788       3.49997020      -0.00017547       0.00006846       0.00000000
N       13.16954056      16.65514973       3.49997020       0.00006875      -0.00016048       0.00000000
B       13.16954226      18.10341264       3.49997020      -0.00005309       0.00009854       0.00000000
N       14.42377382      18.82754386       3.49997020       0.00004425      -0.00013866       0.00000000
B       14.42377418      20.27580545       3.49997020      -0.00001520       0.00005697       0.00000000
N       13.16954185      20.99993935       3.49997020      -0.00004818       0.00015557       0.00000000
B       13.16954132      22.44820383       3.49997020      -0.00001503      -0.00023819       0.00000000
N       14.42377410      23.17233359       3.49997020      -0.00006513       0.00023668       0.00000000
B       14.42377393      24.62059807       3.49997020       0.00003998      -0.00010313       0.00000000
N       13.16954161      25.34472889       3.49997020       0.00000976       0.00000085       0.00000000
B       13.16954189      26.79299213       3.49997020      -0.00013010       0.00012408       0.00000000
N       14.42377414      27.51712347       3.49997020      -0.00003579       0.00001572       0.00000000
B       14.42377394      28.96538713       3.49997020      -0.00004485      -0.00005386       0.00000000
N       13.16954225      29.68951785       3.49997020      -0.00004002       0.00010166       0.00000000
B       13.16954047      31.13778233       3.49997020       0.00004857      -0.00002160       0.00000000
N       14.42377491      31.86191296       3.49997020      -0.00015385      -0.00002672       0.00000000
B       14.42377456      33.31017843       3.49997020       0.00003525       0.00015793       0.00000000
N       13.16954140      34.03430822       3.49997020      -0.00005801      -0.00032560       0.00000000
B       13.16954101      35.48257142       3.49997020       0.00000809       0.00043212       0.00000000
N       14.42377426      36.20670335       3.49997020      -0.00004121      -0.00023600       0.00000000
B       14.42377452      37.65496758       3.49997020      -0.00007895       0.00005157       0.00000000
N       13.16954199      38.37909554       3.49997020      -0.00001214       0.00005206       0.00000000
B       15.67800780       0.72425398       3.49997020      -0.00019939      -0.00010674       0.00000000
N       16.93223960       1.44838516       3.49997020      -0.00001221      -0.00006568       0.00000000
B       16.93223939       2.89664661       3.49997020      -0.00003533       0.00019856       0.00000000
N       15.67800653       3.62078010       3.49997020       0.00005273      -0.00009671       0.00000000
B       15.67800562       5.06904193       3.49997020       0.00010017       0.00006934       0.00000000
N       16.93223958       5.79317450       3.49997020      -0.00005348      -0.00011618       0.00000000
B       16.93223980       7.24143687       3.49997020       0.00003384       0.00003578       0.00000000
N       15.67800755       7.96556991       3.49997020      -0.00005527      -0.00000469       0.00000000
B       15.67800509       9.41383351       3.49997020       0.00019149      -0.00007774       0.00000000
N       16.93224096      10.13796327       3.49997020      -0.00020893       0.00018429       0.00000000
B       16.93223864      11.58622681       3.49997020      -0.00002105      -0.00010699       0.00000000
N       15.67800633      12.31035888       3.49997020       0.00009486       0.00010043       0.00000000
B       15.67800564      13.75862270       3.49997020       0.00007695      -0.00005075       0.00000000
N       16.93224089      14.48275332       3.49997020      -0.00014892       0.00008185       0.00000000
B       16.93223956      15.93101771       3.49997020      -0.00001910       0.00000815       0.00000000
N       15.67800566      16.65514894       3.49997020       0.00013776      -0.00016893       0.00000000
B       15.67800675      18.10341259       3.49997020      -0.00009098       0.00019477       0.00000000
N       16.93223847      18.82754481       3.49997020       0.00014000      -0.00015842       0.00000000
B       16.93224005      20.27580540       3.49997020      -0.00008699       0.00011147       0.00000000
N       15.67800577      20.99993976       3.49997020       0.00002512       0.00005084       0.00000000
B       15.67800546      22.44820163       3.49997020       0.00014127      -0.00019637       0.00000000
N       16.93223871      23.17233369       3.49997020      -0.00009642       0.00016198       0.00000000
B       16.93223838      24.62059805       3.49997020       0.00019479      -0.00013263       0.00000000
N       15.67800674      25.34472850       3.49997020      -0.00013703       0.00007654       0.00000000
B       15.67800577      26.79299269       3.49997020       0.00007447      -0.00006809       0.00000000
N       16.93223965      27.51712270       3.49997020      -0.00001934       0.00009085       0.00000000
B       16.93223962      28.96538728       3.49997020      -0.00000133      -0.00005885       0.00000000
N       15.67800583      29.68951956       3.49997020       0.00003630      -0.00008560       0.00000000
B       15.67800590      31.13778056       3.49997020       0.00017818       0.00015740       0.00000000
N       16.93224092      31.86191302       3.49997020      -0.00018247      -0.00012592       0.00000000
B       16.93223970      33.31017802       3.49997020       0.00012036       0.00005735       0.00000000
N       15.67800755      34.03430772       3.49997020      -0.00010597      -0.00030113       0.00000000
B       15.67800604      35.48257100       3.49997020      -0.00003568       0.00022171       0.00000000
N       16.93224065      36.20670095       3.49997020      -0.00009058       0.00035809       0.00000000
B       16.93223948      37.65496735       3.49997020      -0.00013342      -0.00003702       0.00000000
N       15.67800631      38.37909723       3.49997020       0.00021399      -0.00003419       0.00000000
B       18.18647092       0.72425335       3.49997020       0.00019833       0.00000971       0.00000000
N       19.44070452       1.44838471       3.49997020      -0.00007635      -0.00006412       0.00000000
B       19.44070454       2.89664756       3.49997020       0.00009027       0.00004921       0.00000000
N       18.18647240       3.62078032       3.49997020      -0.00002385      -0.00014038       0.00000000
B       18.18647189       5.06904241       3.49997020       0.00002411       0.00006352       0.00000000
N       19.44070423       5.79317358       3.49997020      -0.00001097      -0.00006223       0.00000000
B       19.44070378       7.24143542       3.49997020       0.00002569       0.00007060       0.00000000
N       18.18647201       7.96556819       3.49997020      -0.00006398       0.00010594       0.00000000
B       18.18646942       9.41383243       3.49997020       0.00016131      -0.00013086       0.00000000
N       19.44070514      10.13796369       3.49997020      -0.00001031       0.00016986       0.00000000
B       19.44070297      11.58622806       3.49997020       0.00025665      -0.00018495       0.00000000
N       18.18647186      12.31035864       3.49997020      -0.00012572       0.00013702       0.00000000
B       18.18647183      13.75862194       3.49997020      -0.00004789      -0.00009742       0.00000000
N       19.44070458      14.48275279       3.49997020       0.00001079       0.00013360       0.00000000
B       19.44070412      15.93101686       3.49997020       0.00001016       0.00004032       0.00000000
N       18.18647223      16.65514928       3.49997020       0.00000141      -0.00021115       0.00000000
B       18.18647157      18.10341165       3.49997020      -0.00005106       0.00017968       0.00000000
N       19.44070413      18.82754286       3.49997020      -0.00003858      -0.00012605       0.00000000
B       19.44070449      20.27580554       3.49997020       0.00001702       0.00003570       0.00000000
N       18.18647193      20.99993941       3.49997020      -0.00007411      -0.00003363       0.00000000
B       18.18647149      22.44820040       3.49997020      -0.00001246      -0.00003572       0.00000000
N       19.44070469      23.17233309       3.49997020      -0.00001028       0.00019345       0.00000000
B       19.44070443      24.62059678       3.49997020      -0.00009407      -0.00016022       0.00000000
N       18.18647184      25.34472800       3.49997020      -0.00001188       0.00013970       0.00000000
B       18.18647175      26.79299313       3.49997020      -0.00002474      -0.00022362       0.00000000
N       19.44070428      27.51712317       3.49997020       0.00005285       0.00009698       0.00000000
B       19.44070380      28.96538448       3.49997020      -0.00000131       0.00008398       0.00000000
N       18.18647084      29.68951853       3.49997020       0.00013052      -0.00004672       0.00000000
B       18.18647166      31.13778020       3.49997020       0.00007154       0.00013754       0.00000000
N       19.44070462      31.86191278       3.49997020       0.00013860      -0.00017166       0.00000000