364
Lattice="23.92952202772518 0.0 0.0 0.0 41.44687070070253 0.0 0.0 0.0 100.0" Properties=species:S:1:pos:R:3:forces:R:3 energy=-70364.29295349121 stress="3.328241682254429e-09 8.963566955344504e-08 -0.0 8.963566955344504e-08 -4.438847067689267e-09 -0.0 -0.0 -0.0 -0.0" free_energy=-70364.29295349121 pbc="T T T"
B        0.16434354      36.34213591       3.49997020       0.00421278       0.00173345       0.00000000
N        0.29582735      37.78445829       3.49997020       0.00472452      -0.00241042       0.00000000
B        0.55878865      40.66903381       3.49997020       0.00393604      -0.00540689       0.00000000
N        0.03286997       7.26844102       3.49997020       0.00647122      -0.00172585       0.00000000
B        0.29583127      10.15301655       3.49997020       0.00407959       0.00142869       0.00000000
N        0.42731508      11.59533892       3.49997020       0.00425886      -0.00175145       0.00000000
B        0.69027639      14.47991444       3.49997020       0.00400249       0.00146479       0.00000000
N        0.82176020      15.92223682       3.49997020       0.00417977      -0.00185069       0.00000000
B        1.08472150      18.80681234       3.49997020       0.00434918       0.00206506       0.00000000
N        1.21620531      20.24913470       3.49997020       0.00098078      -0.00008999       0.00000000
B        0.03286485      21.08412729       3.49997020       0.00421487       0.00149146       0.00000000
N        0.16434866      22.52644966       3.49997020       0.00428761      -0.00195254       0.00000000
B        1.47916661      23.13371022       3.49997020       0.00085081       0.00064470       0.00000000
N        1.61065042      24.57603260       3.49997020       0.00090170      -0.00073563       0.00000000
B        0.42730996      25.41102518       3.49997020       0.00401430       0.00131876       0.00000000
N        0.55879377      26.85334755       3.49997020       0.00440649      -0.00171434       0.00000000
B        1.87361172      27.46060812       3.49997020       0.00085087       0.00073727       0.00000000
N        2.00509553      28.90293049       3.49997020       0.00078529      -0.00110721       0.00000000
B        0.82175507      29.73792307       3.49997020       0.00412551       0.00152486       0.00000000
N        0.95323888      31.18024544       3.49997020       0.00400558      -0.00188769       0.00000000
B        2.26805683      31.78750601       3.49997020       0.00092968       0.00075531       0.00000000
N        2.39954064      33.22982838       3.49997020       0.00097937      -0.00096697       0.00000000
B        1.21620018      34.06482096       3.49997020       0.00434655       0.00211497       0.00000000
N        1.34768399      35.50714334       3.49997020       0.00127807      -0.00007642       0.00000000
B        2.66250194      36.11440390       3.49997020       0.00012695       0.00067142       0.00000000
N        2.79398575      37.55672627       3.49997020      -0.00012847      -0.00095599       0.00000000
B        1.61064530      38.39171886       3.49997020       0.00085145       0.00147847       0.00000000
N        1.74212911      39.83404122       3.49997020       0.00100618      -0.00350319       0.00000000
B        3.05694706      40.44130179       3.49997020      -0.00036389      -0.00585534       0.00000000
N        0.69028151       0.66422818       3.49997020       0.00479628       0.00573686       0.00000000
B        2.00509946       1.27148875       3.49997020       0.00112803       0.00174295       0.00000000
N        2.13658326       2.71381112       3.49997020       0.00117758      -0.00108616       0.00000000
B        0.95324281       3.54880370       3.49997020       0.00407648       0.00158506       0.00000000
N        1.08472662       4.99112607       3.49997020       0.00454798      -0.00108587       0.00000000
B        2.39954457       5.59838664       3.49997020       0.00124710       0.00048413       0.00000000
N        2.53102837       7.04070901       3.49997020      -0.00075290      -0.00064864       0.00000000
B        1.34768792       7.87570159       3.49997020       0.00077183       0.00141339       0.00000000
N        1.47917173       9.31802397       3.49997020       0.00090773      -0.00127770       0.00000000
B        2.79398968       9.92528453       3.49997020       0.00046596       0.00059827       0.00000000
N        2.92547348      11.36760690       3.49997020      -0.00068703      -0.00068605       0.00000000
B        1.74213303      12.20259949       3.49997020       0.00083640       0.00076594       0.00000000
N        1.87361684      13.64492185       3.49997020       0.00082721      -0.00112063       0.00000000
B        3.18843479      14.25218242       3.49997020       0.00057247       0.00069285       0.00000000
N        3.31991859      15.69450479       3.49997020      -0.00060324      -0.00072685       0.00000000
B        2.13657815      16.52949737       3.49997020       0.00089731       0.00072379       0.00000000
N        2.26806196      17.97181975       3.49997020       0.00098034      -0.00085554       0.00000000
B        3.58287991      18.57908032       3.49997020       0.00030998       0.00079038       0.00000000
N        3.71436371      20.02140268       3.49997020      -0.00059843      -0.00109089       0.00000000
B        2.53102326      20.85639527       3.49997020       0.00023439       0.00057391       0.00000000
N        2.66250707      22.29871765       3.49997020      -0.00043793      -0.00058450       0.00000000
B        3.97732502      22.90597820       3.49997020       0.00043866       0.00080996       0.00000000
N        4.10880882      24.34830058       3.49997020      -0.00089650      -0.00101504       0.00000000
B        2.92546837      25.18329317       3.49997020       0.00049367       0.00064312       0.00000000
N        3.05695218      26.62561553       3.49997020      -0.00082045      -0.00073022       0.00000000
B        4.37177013      27.23287610       3.49997020       0.00051179       0.00095715       0.00000000
N        4.50325393      28.67519846       3.49997020      -0.00090351      -0.00072322       0.00000000
B        3.31991348      29.51019105       3.49997020       0.00062621       0.00060333       0.00000000
N        3.45139729      30.95251343       3.49997020      -0.00053538      -0.00064567       0.00000000
B        4.76621524      31.55977398       3.49997020       0.00041394       0.00083738       0.00000000
N        4.89769904      33.00209636       3.49997020      -0.00086569      -0.00075958       0.00000000
B        3.71435859      33.83708895       3.49997020       0.00034309       0.00080605       0.00000000
N        3.84584240      35.27941131       3.49997020      -0.00052464      -0.00063594       0.00000000
B        5.16066035      35.88667188       3.49997020       0.00037849       0.00057872       0.00000000
N        5.29214415      37.32899426       3.49997020      -0.00031413      -0.00063178       0.00000000
B        4.10880370      38.16398683       3.49997020      -0.00004808       0.00144447       0.00000000
N        4.24028751      39.60630921       3.49997020      -0.00021382      -0.00306434       0.00000000
B        5.55510546      40.21356978       3.49997020      -0.00081439      -0.00566189       0.00000000
N        3.18843991       0.43649616       3.49997020       0.00073555       0.00699626       0.00000000
B        4.50325786       1.04375673       3.49997020       0.00003848       0.00199428       0.00000000
N        4.63474167       2.48607910       3.49997020      -0.00011448      -0.00134330       0.00000000
B        3.45140121       3.32107168       3.49997020       0.00037829       0.00117538       0.00000000
N        3.58288502       4.76339406       3.49997020      -0.00067047      -0.00098400       0.00000000
B        4.89770297       5.37065462       3.49997020       0.00029832       0.00094096       0.00000000
N        5.02918678       6.81297699       3.49997020      -0.00081594      -0.00104243       0.00000000
B        3.84584632       7.64796958       3.49997020       0.00069065       0.00095481       0.00000000
N        3.97733013       9.09029194       3.49997020      -0.00085659      -0.00112086       0.00000000
B        5.29214808       9.69755251       3.49997020       0.00023139       0.00075559       0.00000000
N        5.42363189      11.13987489       3.49997020      -0.00068863      -0.00079319       0.00000000
B        4.24029143      11.97486747       3.49997020       0.00042306       0.00088960       0.00000000
N        4.37177524      13.41718984       3.49997020      -0.00084763      -0.00083227       0.00000000
B        5.68659319      14.02445041       3.49997020       0.00020611       0.00086578       0.00000000
N        5.81807700      15.46677277       3.49997020      -0.00070152      -0.00077521       0.00000000
B        4.63473654      16.30176536       3.49997020       0.00041772       0.00084089       0.00000000
N        4.76622035      17.74408773       3.49997020      -0.00088834      -0.00075524       0.00000000
B        6.08103830      18.35134829       3.49997020       0.00023731       0.00077996       0.00000000
N        6.21252211      19.79367067       3.49997020      -0.00069919      -0.00078696       0.00000000
B        5.02918166      20.62866325       3.49997020       0.00035875       0.00093027       0.00000000
N        5.16066547      22.07098562       3.49997020      -0.00082683      -0.00090575       0.00000000
B        6.47548342      22.67824619       3.49997020       0.00010130       0.00086925       0.00000000
N        6.60696723      24.12056856       3.49997020      -0.00047334      -0.00080656       0.00000000
B        5.42362677      24.95556114       3.49997020       0.00025273       0.00087249       0.00000000
N        5.55511058      26.39788351       3.49997020      -0.00069668      -0.00086484       0.00000000
B        6.86992853      27.00514408       3.49997020       0.00009677       0.00079114       0.00000000
N        7.00141234      28.44746645       3.49997020      -0.00034677      -0.00071808       0.00000000
B        5.81807188      29.28245903       3.49997020       0.00019501       0.00078722       0.00000000
N        5.94955569      30.72478141       3.49997020      -0.00074974      -0.00063358       0.00000000
B        7.26437364      31.33204197       3.49997020       0.00001147       0.00078457       0.00000000
N        7.39585745      32.77436434       3.49997020      -0.00046426      -0.00073186       0.00000000
B        6.21251699      33.60935693       3.49997020       0.00025175       0.00079604       0.00000000
N        6.34400080      35.05167929       3.49997020      -0.00075095      -0.00031257       0.00000000
B        7.65881875      35.65893986       3.49997020       0.00011321       0.00070672       0.00000000
N        7.79030256      37.10126224       3.49997020      -0.00050671      -0.00006244       0.00000000
B        6.60696210      37.93625481       3.49997020       0.00016616       0.00048859       0.00000000
N        6.73844591      39.37857719       3.49997020       0.00125872      -0.00163717       0.00000000
B        8.05326386      39.98583776       3.49997020      -0.00025291      -0.00053339       0.00000000
N        8.18474767      41.42816012       3.49997020       0.00003337      -0.00853339       0.00000000
N        5.68659832       0.20876414       3.49997020      -0.00009787       0.00578205       0.00000000
B        7.00141627       0.81602471       3.49997020      -0.00099110       0.00561650       0.00000000
N        7.13290008       2.25834708       3.49997020      -0.00107335       0.00028981       0.00000000
B        5.94955962       3.09333966       3.49997020       0.00031343       0.00108022       0.00000000
N        6.08104343       4.53566204       3.49997020      -0.00031829      -0.00146593       0.00000000
B        7.39586138       5.14292260       3.49997020      -0.00021939       0.00111549       0.00000000
N        7.52734519       6.58524497       3.49997020      -0.00000796      -0.00141164       0.00000000
B        6.34400473       7.42023756       3.49997020       0.00007725       0.00084860       0.00000000
N        6.47548854       8.86255992       3.49997020      -0.00050398      -0.00070437       0.00000000
B        7.79030649       9.46982049       3.49997020       0.00005913       0.00079422       0.00000000
N        7.92179030      10.91214287       3.49997020      -0.00017258      -0.00081750       0.00000000
B        6.73844984      11.74713545       3.49997020       0.00010684       0.00088407       0.00000000
N        6.86993365      13.18945782       3.49997020      -0.00040890      -0.00082679       0.00000000
B        8.18475160      13.79671839       3.49997020       0.00006735       0.00077281       0.00000000
N        8.31623541      15.23904075       3.49997020      -0.00008956      -0.00075389       0.00000000
B        7.13289495      16.07403334       3.49997020       0.00009164       0.00078045       0.00000000
N        7.26437876      17.51635572       3.49997020      -0.00042081      -0.00073787       0.00000000
B        8.57919671      18.12361627       3.49997020       0.00003407       0.00078418       0.00000000
N        8.71068052      19.56593865       3.49997020      -0.00010649      -0.00082595       0.00000000
B        7.52734006      20.40093124       3.49997020       0.00010019       0.00085417       0.00000000
N        7.65882387      21.84325360       3.49997020      -0.00025151      -0.00091382       0.00000000
B        8.97364182      22.45051417       3.49997020       0.00003277       0.00081364       0.00000000
N        9.10512563      23.89283655       3.49997020      -0.00002179      -0.00075093       0.00000000
B        7.92178518      24.72782912       3.49997020       0.00007388       0.00079005       0.00000000
N        8.05326899      26.17015150       3.49997020      -0.00006383      -0.00073111       0.00000000
B        9.36808694      26.77741207       3.49997020       0.00006111       0.00075205       0.00000000
N        9.49957075      28.21973443       3.49997020       0.00000736      -0.00080675       0.00000000
B        8.31623029      29.05472702       3.49997020       0.00000288       0.00075288       0.00000000
N        8.44771410      30.49704939       3.49997020       0.00002478      -0.00077868       0.00000000
B        9.76253205      31.10430995       3.49997020       0.00008384       0.00082551       0.00000000
N        9.89401586      32.54663233       3.49997020      -0.00006457      -0.00079185       0.00000000
B        8.71067540      33.38162491       3.49997020       0.00008566       0.00075730       0.00000000
N        8.84215921      34.82394728       3.49997020      -0.00023359      -0.00052783       0.00000000
B       10.15697716      35.43120785       3.49997020       0.00004227       0.00068384       0.00000000
N       10.28846097      36.87353022       3.49997020      -0.00000280      -0.00015372       0.00000000
B        9.10512051      37.70852280       3.49997020      -0.00003081       0.00014226       0.00000000
N        9.23660432      39.15084517       3.49997020      -0.00012899       0.00026743       0.00000000
B       10.55142227      39.75810574       3.49997020      -0.00004654      -0.00069270       0.00000000
N       10.68290608      41.20042811       3.49997020      -0.00008753      -0.00934468       0.00000000
B        9.49957467       0.58829270       3.49997020      -0.00016658       0.00853010       0.00000000
N        9.63105848       2.03061506       3.49997020       0.00013861       0.00150341       0.00000000
B        8.44771803       2.86560765       3.49997020       0.00031907       0.00031633       0.00000000
N        8.57920184       4.30793002       3.49997020       0.00007718      -0.00131905       0.00000000
B        9.89401979       4.91519058       3.49997020       0.00006710       0.00118431       0.00000000
N       10.02550360       6.35751296       3.49997020       0.00007951      -0.00151710       0.00000000
B        8.84216314       7.19250554       3.49997020       0.00005571       0.00084345       0.00000000
N        8.97364695       8.63482791       3.49997020      -0.00015629      -0.00095239       0.00000000
B       10.28846490       9.24208848       3.49997020       0.00008264       0.00081471       0.00000000
N       10.41994871      10.68441085       3.49997020       0.00003470      -0.00067785       0.00000000
B        9.23660825      11.51940343       3.49997020       0.00006987       0.00078217       0.00000000
N        9.36809206      12.96172580       3.49997020       0.00005208      -0.00074016       0.00000000
B       10.68291001      13.56898637       3.49997020      -0.00004430       0.00073119       0.00000000
N       10.81439382      15.01130874       3.49997020       0.00009557      -0.00081800       0.00000000
B        9.63105336      15.84630132       3.49997020       0.00001928       0.00082502       0.00000000
N        9.76253717      17.28862370       3.49997020       0.00003638      -0.00087364       0.00000000
B       11.07735512      17.89588426       3.49997020       0.00004393       0.00087611       0.00000000
N       11.20883893      19.33820663       3.49997020      -0.00003298      -0.00094075       0.00000000
B       10.02549847      20.17319922       3.49997020       0.00005026       0.00084807       0.00000000
N       10.15698228      21.61552158       3.49997020      -0.00000725      -0.00082923       0.00000000
B       11.47180023      22.22278215       3.49997020       0.00008631       0.00077904       0.00000000
N       11.60328404      23.66510453       3.49997020      -0.00001125      -0.00072107       0.00000000
B       10.41994358      24.50009710       3.49997020       0.00005086       0.00075944       0.00000000
N       10.55142739      25.94241948       3.49997020      -0.00000761      -0.00073878       0.00000000
B       11.86624534      26.54968005       3.49997020       0.00004356       0.00082730       0.00000000
N       11.99772915      27.99200241       3.49997020      -0.00011387      -0.00085814       0.00000000
B       10.81438870      28.82699500       3.49997020       0.00004616       0.00086316       0.00000000
N       10.94587251      30.26931737       3.49997020      -0.00000338      -0.00087797       0.00000000
B       12.26069046      30.87657793       3.49997020       0.00002435       0.00091627       0.00000000
N       12.39217427      32.31890031       3.49997020       0.00006718      -0.00085887       0.00000000
B       11.20883381      33.15389290       3.49997020       0.00004349       0.00077503       0.00000000
N       11.34031762      34.59621526       3.49997020      -0.00005727      -0.00070339       0.00000000
B       12.65513557      35.20347583       3.49997020       0.00001426       0.00082706       0.00000000
N       12.78661938      36.64579819       3.49997020       0.00011470      -0.00017120       0.00000000
B       11.60327892      37.48079078       3.49997020      -0.00000921       0.00022461       0.00000000
N       11.73476273      38.92311316       3.49997020      -0.00010913       0.00031912       0.00000000
B       13.04958068      39.53037371       3.49997020       0.00023733      -0.00065350       0.00000000
N       13.18106449      40.97269609       3.49997020       0.00031114      -0.00934085       0.00000000
B       11.99773307       0.36056068       3.49997020      -0.00013869       0.00864828       0.00000000
N       12.12921688       1.80288304       3.49997020       0.00003470       0.00183360       0.00000000
B       10.94587643       2.63787563       3.49997020       0.00019578       0.00003968       0.00000000
N       11.07736023       4.08019801       3.49997020      -0.00008818      -0.00117840       0.00000000
B       12.39217818       4.68745857       3.49997020       0.00010404       0.00110681       0.00000000
N       12.52366199       6.12978094       3.49997020      -0.00010881      -0.00158772       0.00000000
B       11.34032155       6.96477353       3.49997020       0.00006500       0.00082129       0.00000000
N       11.47180535       8.40709589       3.49997020      -0.00001044      -0.00094232       0.00000000
B       12.78662330       9.01435646       3.49997020       0.00003973       0.00075292       0.00000000
N       12.91810711      10.45667883       3.49997020       0.00008019      -0.00068098       0.00000000
B       11.73476666      11.29167141       3.49997020      -0.00005125       0.00072889       0.00000000
N       11.86625046      12.73399379       3.49997020       0.00010462      -0.00068038       0.00000000
B       13.18106841      13.34125436       3.49997020       0.00002465       0.00080150       0.00000000
N       13.31255222      14.78357672       3.49997020      -0.00011209      -0.00082538       0.00000000
B       12.12921177      15.61856931       3.49997020       0.00011254       0.00087331       0.00000000
N       12.26069557      17.06089168       3.49997020      -0.00001461      -0.00097608       0.00000000
B       13.57551352      17.66815224       3.49997020      -0.00003667       0.00091571       0.00000000
N       13.70699733      19.11047462       3.49997020      -0.00001594      -0.00091192       0.00000000
B       12.52365688      19.94546720       3.49997020       0.00002456       0.00080925       0.00000000
N       12.65514068      21.38778957       3.49997020      -0.00003130      -0.00070366       0.00000000
B       13.96995863      21.99505014       3.49997020       0.00007392       0.00075999       0.00000000
N       14.10144244      23.43737250       3.49997020       0.00000944      -0.00077240       0.00000000
B       12.91810199      24.27236509       3.49997020      -0.00001504       0.00083771       0.00000000
N       13.04958579      25.71468746       3.49997020       0.00000012      -0.00087283       0.00000000
B       14.36440374      26.32194802       3.49997020       0.00004320       0.00099765       0.00000000
N       14.49588755      27.76427040       3.49997020      -0.00009013      -0.00100187       0.00000000
B       13.31254710      28.59926298       3.49997020       0.00011248       0.00096727       0.00000000
N       13.44403090      30.04158535       3.49997020      -0.00015991      -0.00095196       0.00000000
B       14.75884885      30.64884592       3.49997020       0.00010288       0.00081304       0.00000000
N       14.89033266      32.09116829       3.49997020      -0.00007289      -0.00060549       0.00000000
B       13.70699222      32.92616087       3.49997020       0.00002548       0.00066741       0.00000000
N       13.83847601      34.36848324       3.49997020       0.00001883      -0.00088561       0.00000000
B       15.15329397      34.97574381       3.49997020       0.00009134       0.00095563       0.00000000
N       15.28477777      36.41806618       3.49997020       0.00027694      -0.00038071       0.00000000
B       14.10143733      37.25305876       3.49997020      -0.00005846       0.00028907       0.00000000
N       14.23292113      38.69538114       3.49997020      -0.00039453       0.00012478       0.00000000
B       15.54773908      39.30264170       3.49997020       0.00067692      -0.00010255       0.00000000
N       15.67922289      40.74496407       3.49997020       0.00129217      -0.00611928       0.00000000
B       14.49589148       0.13282865       3.49997020      -0.00031486       0.00779348       0.00000000
N       14.62737529       1.57515103       3.49997020       0.00036239       0.00165575       0.00000000
B       13.44403483       2.41014361       3.49997020      -0.00023627       0.00020436       0.00000000
N       13.57551864       3.85246598       3.49997020      -0.00002999      -0.00107781       0.00000000
B       14.89033659       4.45972655       3.49997020      -0.00004045       0.00100315       0.00000000
N       15.02182040       5.90204892       3.49997020      -0.00017068      -0.00152543       0.00000000
B       13.83847994       6.73704150       3.49997020      -0.00001998       0.00089765       0.00000000
N       13.96996375       8.17936387       3.49997020      -0.00004680      -0.00088756       0.00000000
B       15.28478170       8.78662444       3.49997020       0.00008359       0.00068656       0.00000000
N       15.41626551      10.22894681       3.49997020      -0.00009259      -0.00070724       0.00000000
B       14.23292506      11.06393939       3.49997020       0.00001208       0.00079197       0.00000000
N       14.36440887      12.50626177       3.49997020      -0.00007188      -0.00073193       0.00000000
B       15.67922682      13.11352233       3.49997020       0.00011262       0.00081718       0.00000000
N       15.81071063      14.55584470       3.49997020      -0.00028796      -0.00080404       0.00000000
B       14.62737017      15.39083729       3.49997020       0.00015264       0.00071255       0.00000000
N       14.75885398      16.83315965       3.49997020      -0.00014737      -0.00097341       0.00000000
B       16.07367193      17.44042022       3.49997020       0.00020691       0.00085178       0.00000000
N       16.20515574      18.88274260       3.49997020       0.00004336      -0.00074895       0.00000000
B       15.02181528      19.71773518       3.49997020       0.00009693       0.00079327       0.00000000
N       15.15329909      21.16005755       3.49997020      -0.00006281      -0.00073089       0.00000000
B       16.46811704      21.76731812       3.49997020       0.00004557       0.00074528       0.00000000
N       16.59960085      23.20964048       3.49997020       0.00015340      -0.00083222       0.00000000
B       15.41626039      24.04463307       3.49997020       0.00010482       0.00082937       0.00000000
N       15.54774420      25.48695545       3.49997020      -0.00011947      -0.00100165       0.00000000
B       16.86256215      26.09421600       3.49997020       0.00002699       0.00078216       0.00000000
N       16.99404596      27.53653838       3.49997020       0.00028448      -0.00071703       0.00000000
B       15.81070550      28.37153097       3.49997020       0.00001225       0.00079819       0.00000000
N       15.94218931      29.81385333       3.49997020      -0.00004339      -0.00078265       0.00000000
B       17.25700726      30.42111390       3.49997020       0.00002221       0.00071874       0.00000000
N       17.38849107      31.86343628       3.49997020       0.00034060      -0.00056989       0.00000000
B       16.20515061      32.69842885       3.49997020       0.00002334       0.00065577       0.00000000
N       16.33663442      34.14075123       3.49997020       0.00023111      -0.00051182       0.00000000
B       17.65145237      34.74801180       3.49997020      -0.00000803       0.00070721       0.00000000
N       17.78293618      36.19033416       3.49997020       0.00039137      -0.00026137       0.00000000
B       16.59959573      37.02532675       3.49997020      -0.00007581       0.00056206       0.00000000
N       16.73107953      38.46764912       3.49997020       0.00012746      -0.00048315       0.00000000
B       18.04589749      39.07490968       3.49997020       0.00035393       0.00116186       0.00000000
N       18.17738129      40.51723206       3.49997020      -0.00024212      -0.00300716       0.00000000
B       16.99404084      41.35222464       3.49997020       0.00016738      -0.00512787       0.00000000
N       17.12553370       1.34741901       3.49997020       0.00055840       0.00657731       0.00000000
B       15.94219324       2.18241160       3.49997020      -0.00135699       0.00135638       0.00000000
N       16.07367705       3.62473396       3.49997020       0.00011840      -0.00130135       0.00000000
B       17.38849500       4.23199453       3.49997020       0.00004253       0.00152543       0.00000000
N       17.51997881       5.67431691       3.49997020       0.00017274      -0.00149144       0.00000000
B       16.33663835       6.50930948       3.49997020       0.00013930       0.00088613       0.00000000
N       16.46812216       7.95163186       3.49997020       0.00020834      -0.00094905       0.00000000
B       17.78294011       8.55889243       3.49997020      -0.00003851       0.00085793       0.00000000
N       17.91442392      10.00121479       3.49997020       0.00046225      -0.00083105       0.00000000
B       16.73108346      10.83620738       3.49997020       0.00013664       0.00083930       0.00000000
N       16.86256727      12.27852975       3.49997020       0.00007328      -0.00088234       0.00000000
B       18.17738522      12.88579031       3.49997020       0.00003552       0.00083148       0.00000000
N       18.30886903      14.32811269       3.49997020       0.00054713      -0.00087873       0.00000000
B       17.12552858      15.16310527       3.49997020       0.00009277       0.00077959       0.00000000
N       17.25701239      16.60542764       3.49997020       0.00012712      -0.00078257       0.00000000
B       18.57183034      17.21268821       3.49997020      -0.00004551       0.00072355       0.00000000
N       18.70331414      18.65501058       3.49997020       0.00083194      -0.00057901       0.00000000
B       17.51997369      19.49000316       3.49997020       0.00001057       0.00075518       0.00000000
N       17.65145750      20.93232553       3.49997020       0.00056646      -0.00069948       0.00000000
B       18.96627545      21.53958610       3.49997020      -0.00038414       0.00090419       0.00000000
N       19.09775926      22.98190847       3.49997020       0.00067901      -0.00085041       0.00000000
B       17.91441880      23.81690105       3.49997020      -0.00001843       0.00091465       0.00000000