412
Lattice="25.458448929591118 0.0 0.0 0.0 44.09503329199807 0.0 0.0 0.0 100.0" Properties=species:S:1:pos:R:3:forces:R:3 energy=-79643.10174560547 stress="4.208037474029425e-09 1.6802860614006931e-07 -0.0 1.6802860614006931e-07 -2.1865380617214214e-09 -0.0 -0.0 -0.0 -0.0" free_energy=-79643.10174560547 pbc="T T T"
B        0.12357401      33.78500964       3.49997020       0.00576963      -0.00207994       0.00000000
N        0.61791193      36.63905193       3.49997020       0.00524278       0.00079330       0.00000000
B        0.86508682      38.06610732       3.49997020       0.00423389      -0.00150377       0.00000000
B       -0.00001444      40.42071157       3.49997020       0.00596110      -0.00192176       0.00000000
N        1.35942475      40.92014962       3.49997020       0.00164781       0.00177677       0.00000000
B        1.60659964      42.34720500       3.49997020       0.00084440      -0.00272500       0.00000000
N        0.49432348      43.27475386       3.49997020       0.00467448      -0.00650525       0.00000000
N        0.12357603      19.08655039       3.49997020       0.00530115       0.00117786       0.00000000
B        0.37075092      20.51360578       3.49997020       0.00376973      -0.00198069       0.00000000
N        0.86508884      23.36764808       3.49997020       0.00535761       0.00222654       0.00000000
B        1.11226373      24.79470346       3.49997020       0.00081886      -0.00012021       0.00000000
N       -0.00001242      25.72225232       3.49997020       0.00525229       0.00102781       0.00000000
B        0.24716247      27.14930770       3.49997020       0.00367832      -0.00174703       0.00000000
N        1.60660165      27.64874575       3.49997020       0.00106662       0.00043295       0.00000000
B        1.85377655      29.07580115       3.49997020       0.00083543      -0.00112997       0.00000000
N        0.74150038      30.00335000       3.49997020       0.00479920       0.00128056       0.00000000
B        0.98867527      31.43040539       3.49997020       0.00420016      -0.00150477       0.00000000
N        2.34811446      31.92984344       3.49997020       0.00131929       0.00026978       0.00000000
B        2.59528935      33.35689884       3.49997020      -0.00006594      -0.00098636       0.00000000
N        1.48301320      34.28444768       3.49997020       0.00132464       0.00192994       0.00000000
B        1.73018809      35.71150308       3.49997020       0.00075712      -0.00113846       0.00000000
N        3.08962727      36.21094113       3.49997020      -0.00058647       0.00065872       0.00000000
B        3.33680216      37.63799651       3.49997020       0.00018115      -0.00042982       0.00000000
N        2.22452601      38.56554537       3.49997020       0.00146792       0.00036761       0.00000000
B        2.47170090      39.99260076       3.49997020      -0.00035263      -0.00099866       0.00000000
N        3.83114008      40.49203881       3.49997020       0.00022729       0.00114842       0.00000000
B        4.07831497      41.91909420       3.49997020       0.00110723      -0.00132838       0.00000000
N        2.96603882      42.84664305       3.49997020      -0.00059733      -0.00744649       0.00000000
N        0.37075293       5.81514653       3.49997020       0.00536135       0.00120366       0.00000000
B        0.61792782       7.24220192       3.49997020       0.00378243      -0.00200529       0.00000000
N        1.11226574      10.09624421       3.49997020       0.00518099       0.00245041       0.00000000
B        1.35944063      11.52329961       3.49997020       0.00080993      -0.00021288       0.00000000
N        0.24716448      12.45084846       3.49997020       0.00536753       0.00095540       0.00000000
B        0.49433937      13.87790385       3.49997020       0.00370632      -0.00184208       0.00000000
N        1.85377856      14.37734190       3.49997020       0.00100800       0.00053207       0.00000000
B        2.10095345      15.80439729       3.49997020       0.00096690      -0.00139215       0.00000000
N        0.98867729      16.73194614       3.49997020       0.00519194       0.00238907       0.00000000
B        1.23585218      18.15900154       3.49997020       0.00080945      -0.00023802       0.00000000
N        2.59529137      18.65843959       3.49997020      -0.00048367       0.00043921       0.00000000
B        2.84246626      20.08549497       3.49997020       0.00040842      -0.00072619       0.00000000
N        1.73019011      21.01304383       3.49997020       0.00107123       0.00082077       0.00000000
B        1.97736500      22.44009922       3.49997020       0.00095950      -0.00137529       0.00000000
N        3.33680418      22.93953728       3.49997020      -0.00072063       0.00077139       0.00000000
B        3.58397907      24.36659266       3.49997020       0.00051576      -0.00062618       0.00000000
N        2.47170292      25.29414151       3.49997020      -0.00055118       0.00054228       0.00000000
B        2.71887781      26.72119690       3.49997020       0.00041141      -0.00056174       0.00000000
N        4.07831699      27.22063495       3.49997020      -0.00059362       0.00084564       0.00000000
B        4.32549188      28.64769035       3.49997020       0.00008526      -0.00094971       0.00000000
N        3.21321572      29.57523920       3.49997020      -0.00033629       0.00090811       0.00000000
B        3.46039062      31.00229459       3.49997020       0.00018768      -0.00046191       0.00000000
N        4.81982979      31.50173264       3.49997020      -0.00073411       0.00082058       0.00000000
B        5.06700468      32.92878804       3.49997020       0.00023402      -0.00099865       0.00000000
N        3.95472853      33.85633688       3.49997020      -0.00039951       0.00093512       0.00000000
B        4.20190342      35.28339227       3.49997020       0.00026851      -0.00080571       0.00000000
N        5.56134260      35.78283033       3.49997020      -0.00054084       0.00093142       0.00000000
B        5.80851749      37.20988571       3.49997020       0.00002879      -0.00078599       0.00000000
N        4.69624134      38.13743457       3.49997020      -0.00058836       0.00088536       0.00000000
B        4.94341623      39.56448996       3.49997020      -0.00010089      -0.00085155       0.00000000
N        6.30285541      40.06392801       3.49997020      -0.00018969       0.00107178       0.00000000
B        6.55003030      41.49098340       3.49997020      -0.00017562      -0.00030870       0.00000000
N        5.43775415      42.41853225       3.49997020      -0.00074096      -0.00157911       0.00000000
B        5.68492904      43.84558765       3.49997020       0.00063325      -0.00855882       0.00000000
B        0.74151628       0.60650000       3.49997020       0.00458116       0.00522552       0.00000000
N        2.10095546       1.10593805       3.49997020       0.00186111       0.00310135       0.00000000
B        2.34813036       2.53299343       3.49997020       0.00061288      -0.00181273       0.00000000
N        1.23585419       3.46054229       3.49997020       0.00573550       0.00264387       0.00000000
B        1.48302908       4.88759768       3.49997020       0.00076483      -0.00034872       0.00000000
N        2.84246827       5.38703573       3.49997020      -0.00025631       0.00042453       0.00000000
B        3.08964316       6.81409112       3.49997020       0.00035730      -0.00061333       0.00000000
N        1.97736701       7.74163998       3.49997020       0.00113182       0.00056525       0.00000000
B        2.22454190       9.16869536       3.49997020       0.00096234      -0.00138113       0.00000000
N        3.58398108       9.66813341       3.49997020      -0.00047062       0.00075954       0.00000000
B        3.83115597      11.09518881       3.49997020       0.00048652      -0.00069531       0.00000000
N        2.71887982      12.02273766       3.49997020      -0.00063193       0.00051392       0.00000000
B        2.96605471      13.44979305       3.49997020       0.00039990      -0.00057020       0.00000000
N        4.32549389      13.94923110       3.49997020      -0.00055330       0.00074663       0.00000000
B        4.57266878      15.37628649       3.49997020       0.00020789      -0.00101549       0.00000000
N        3.46039263      16.30383534       3.49997020      -0.00051123       0.00109753       0.00000000
B        3.70756752      17.73089074       3.49997020       0.00046341      -0.00070323       0.00000000
N        5.06700670      18.23032879       3.49997020      -0.00078019       0.00078633       0.00000000
B        5.31418159      19.65738417       3.49997020       0.00000522      -0.00084335       0.00000000
N        4.20190544      20.58493303       3.49997020      -0.00053390       0.00086553       0.00000000
B        4.44908033      22.01198842       3.49997020       0.00015765      -0.00106418       0.00000000
N        5.80851951      22.51142646       3.49997020      -0.00040145       0.00086340       0.00000000
B        6.05569440      23.93848186       3.49997020      -0.00007406      -0.00073340       0.00000000
N        4.94341825      24.86603071       3.49997020      -0.00063869       0.00069969       0.00000000
B        5.19059314      26.29308610       3.49997020      -0.00004346      -0.00082109       0.00000000
N        6.55003232      26.79252415       3.49997020      -0.00024316       0.00084588       0.00000000
B        6.79720721      28.21957955       3.49997020      -0.00006161      -0.00073726       0.00000000
N        5.68493105      29.14712840       3.49997020      -0.00044131       0.00070722       0.00000000
B        5.93210595      30.57418379       3.49997020       0.00000043      -0.00073562       0.00000000
N        7.29154512      31.07362184       3.49997020      -0.00029165       0.00090044       0.00000000
B        7.53872002      32.50067723       3.49997020      -0.00017387      -0.00096123       0.00000000
N        6.42644386      33.42822608       3.49997020      -0.00038129       0.00088073       0.00000000
B        6.67361875      34.85528147       3.49997020      -0.00010600      -0.00082747       0.00000000
N        8.03305793      35.35471952       3.49997020      -0.00005231       0.00062218       0.00000000
B        8.28023282      36.78177491       3.49997020      -0.00007785      -0.00088562       0.00000000
N        7.16795667      37.70932376       3.49997020      -0.00022473       0.00124606       0.00000000
B        7.41513156      39.13637916       3.49997020       0.00018526      -0.00099116       0.00000000
N        8.77457075      39.63581721       3.49997020       0.00008425       0.00139757       0.00000000
B        9.02174564      41.06287260       3.49997020      -0.00062419      -0.00113708       0.00000000
N        7.90946948      41.99042145       3.49997020       0.00109388      -0.00045966       0.00000000
B        8.15664437      43.41747685       3.49997020       0.00097576      -0.00609204       0.00000000
N        9.51608356      43.91691489       3.49997020       0.00026325      -0.00646249       0.00000000
B        3.21323162       0.17838920       3.49997020      -0.00017707       0.00537470       0.00000000
N        4.57267079       0.67782725       3.49997020      -0.00085404       0.00734332       0.00000000
B        4.81984569       2.10488263       3.49997020      -0.00110407       0.00015076       0.00000000
N        3.70756953       3.03243149       3.49997020       0.00032370       0.00083073       0.00000000
B        3.95474442       4.45948688       3.49997020       0.00029466      -0.00079615       0.00000000
N        5.31418360       4.95892492       3.49997020      -0.00050488       0.00015261       0.00000000
B        5.56135849       6.38598032       3.49997020      -0.00003036      -0.00076286       0.00000000
N        4.44908234       7.31352917       3.49997020      -0.00044298       0.00078938       0.00000000
B        4.69625723       8.74058456       3.49997020       0.00014087      -0.00102177       0.00000000
N        6.05569641       9.24002261       3.49997020      -0.00045046       0.00080403       0.00000000
B        6.30287130      10.66707801       3.49997020      -0.00003129      -0.00075376       0.00000000
N        5.19059515      11.59462686       3.49997020      -0.00065552       0.00067484       0.00000000
B        5.43777004      13.02168225       3.49997020      -0.00007184      -0.00078503       0.00000000
N        6.79720922      13.52112030       3.49997020      -0.00026436       0.00083874       0.00000000
B        7.04438411      14.94817568       3.49997020      -0.00010638      -0.00069003       0.00000000
N        5.93210796      15.87572454       3.49997020      -0.00038615       0.00088247       0.00000000
B        6.17928285      17.30277993       3.49997020      -0.00004118      -0.00087172       0.00000000
N        7.53872203      17.80221798       3.49997020      -0.00008925       0.00080603       0.00000000
B        7.78589692      19.22927337       3.49997020      -0.00008451      -0.00085560       0.00000000
N        6.67362077      20.15682222       3.49997020      -0.00028318       0.00084450       0.00000000
B        6.92079566      21.58387762       3.49997020      -0.00004963      -0.00086716       0.00000000
N        8.28023484      22.08331566       3.49997020      -0.00001489       0.00088524       0.00000000
B        8.52740973      23.51037106       3.49997020      -0.00010171      -0.00069545       0.00000000
N        7.41513358      24.43791991       3.49997020      -0.00010123       0.00069882       0.00000000
B        7.66230847      25.86497530       3.49997020      -0.00005673      -0.00081855       0.00000000
N        9.02174766      26.36441335       3.49997020       0.00002747       0.00082716       0.00000000
B        9.26892255      27.79146874       3.49997020      -0.00012975      -0.00084851       0.00000000
N        8.15664638      28.71901760       3.49997020       0.00008212       0.00075161       0.00000000
B        8.40382128      30.14607298       3.49997020      -0.00007819      -0.00074268       0.00000000
N        9.76326046      30.64551104       3.49997020       0.00012412       0.00068429       0.00000000
B       10.01043536      32.07256643       3.49997020      -0.00007017      -0.00084062       0.00000000
N        8.89815920      33.00011527       3.49997020       0.00014260       0.00097167       0.00000000
B        9.14533409      34.42717067       3.49997020      -0.00008526      -0.00069307       0.00000000
N       10.50477327      34.92660872       3.49997020       0.00002053       0.00083775       0.00000000
B       10.75194816      36.35366411       3.49997020      -0.00008951      -0.00086445       0.00000000
N        9.63967201      37.28121296       3.49997020      -0.00003535       0.00126136       0.00000000
B        9.88684690      38.70826836       3.49997020      -0.00016276      -0.00080022       0.00000000
N       11.24628608      39.20770641       3.49997020       0.00013937       0.00168209       0.00000000
B       11.49346097      40.63476180       3.49997020      -0.00018852      -0.00140826       0.00000000
N       10.38118482      41.56231065       3.49997020       0.00028496       0.00157221       0.00000000
B       10.62835971      42.98936603       3.49997020      -0.00050012      -0.00198273       0.00000000
N       11.98779889      43.48880409       3.49997020      -0.00065593      -0.00715620       0.00000000
N        7.04438612       0.24971645       3.49997020      -0.00071955       0.00915137       0.00000000
B        7.29156102       1.67677183       3.49997020       0.00031130       0.00057073       0.00000000
N        6.17928486       2.60432068       3.49997020       0.00013790       0.00027268       0.00000000
B        6.42645975       4.03137607       3.49997020       0.00001687      -0.00009380       0.00000000
N        7.78589893       4.53081412       3.49997020       0.00000635       0.00006101       0.00000000
B        8.03307382       5.95786952       3.49997020      -0.00007976      -0.00067843       0.00000000
N        6.92079767       6.88541837       3.49997020      -0.00016210       0.00052989       0.00000000
B        7.16797256       8.31247376       3.49997020      -0.00003320      -0.00077087       0.00000000
N        8.52741174       8.81191181       3.49997020       0.00009857       0.00064013       0.00000000
B        8.77458663      10.23896721       3.49997020      -0.00011545      -0.00069877       0.00000000
N        7.66231048      11.16651605       3.49997020      -0.00012962       0.00063083       0.00000000
B        7.90948537      12.59357144       3.49997020      -0.00003425      -0.00086731       0.00000000
N        9.26892456      13.09300950       3.49997020       0.00008657       0.00079643       0.00000000
B        9.51609945      14.52006488       3.49997020      -0.00012381      -0.00080185       0.00000000
N        8.40382329      15.44761374       3.49997020       0.00009402       0.00081064       0.00000000
B        8.65099818      16.87466913       3.49997020      -0.00018039      -0.00081677       0.00000000
N       10.01043737      17.37410718       3.49997020       0.00019819       0.00078501       0.00000000
B       10.25761226      18.80116257       3.49997020      -0.00015489      -0.00074666       0.00000000
N        9.14533611      19.72871142       3.49997020       0.00008462       0.00083983       0.00000000
B        9.39251100      21.15576682       3.49997020      -0.00006530      -0.00092171       0.00000000
N       10.75195018      21.65520486       3.49997020       0.00021462       0.00070066       0.00000000
B       10.99912507      23.08226026       3.49997020      -0.00015203      -0.00086430       0.00000000
N        9.88684892      24.00980911       3.49997020       0.00010364       0.00082109       0.00000000
B       10.13402381      25.43686450       3.49997020      -0.00013180      -0.00075388       0.00000000
N       11.49346299      25.93630255       3.49997020       0.00030620       0.00076198       0.00000000
B       11.74063788      27.36335794       3.49997020      -0.00008757      -0.00081485       0.00000000
N       10.62836173      28.29090680       3.49997020       0.00009401       0.00080678       0.00000000
B       10.87553662      29.71796218       3.49997020      -0.00018377      -0.00072635       0.00000000
N       12.23497579      30.21740023       3.49997020       0.00016000       0.00078835       0.00000000
B       12.48215069      31.64445563       3.49997020      -0.00011809      -0.00070726       0.00000000
N       11.36987453      32.57200447       3.49997020       0.00008237       0.00073919       0.00000000
B       11.61704942      33.99905987       3.49997020      -0.00002691      -0.00075530       0.00000000
N       12.97648860      34.49849792       3.49997020       0.00007438       0.00071017       0.00000000
B       13.22366349      35.92555331       3.49997020      -0.00010757      -0.00080384       0.00000000
N       12.11138734      36.85310216       3.49997020       0.00002756       0.00104884       0.00000000
B       12.35856223      38.28015756       3.49997020      -0.00000845      -0.00088869       0.00000000
N       13.71800141      38.77959561       3.49997020       0.00021160       0.00152940       0.00000000
B       13.96517630      40.20665099       3.49997020      -0.00012603      -0.00155021       0.00000000
N       12.85290015      41.13419985       3.49997020      -0.00000630       0.00180559       0.00000000
B       13.10007504      42.56125523       3.49997020      -0.00030554      -0.00201478       0.00000000
N       14.45951422      43.06069328       3.49997020      -0.00086928      -0.00708687       0.00000000
B        9.76327636       1.24866103       3.49997020       0.00099246       0.00604063       0.00000000
N        8.65100019       2.17620988       3.49997020      -0.00113392       0.00201693       0.00000000
B        8.89817509       3.60326527       3.49997020      -0.00007516      -0.00061432       0.00000000
N       10.25761427       4.10270332       3.49997020       0.00000205       0.00046921       0.00000000
B       10.50478916       5.52975872       3.49997020      -0.00010463      -0.00047147       0.00000000
N        9.39251301       6.45730757       3.49997020       0.00022417       0.00024354       0.00000000
B        9.63968790       7.88436296       3.49997020      -0.00013727      -0.00083758       0.00000000
N       10.99912708       8.38380101       3.49997020       0.00008347       0.00054761       0.00000000
B       11.24630197       9.81085640       3.49997020      -0.00013010      -0.00071278       0.00000000
N       10.13402582      10.73840525       3.49997020       0.00011824       0.00070219       0.00000000
B       10.38120071      12.16546064       3.49997020      -0.00013603      -0.00076744       0.00000000
N       11.74063989      12.66489869       3.49997020       0.00014623       0.00068396       0.00000000
B       11.98781478      14.09195408       3.49997020      -0.00014538      -0.00082436       0.00000000
N       10.87553863      15.01950293       3.49997020       0.00005730       0.00091461       0.00000000
B       11.12271352      16.44655833       3.49997020      -0.00006431      -0.00085103       0.00000000
N       12.48215270      16.94599638       3.49997020       0.00005040       0.00094474       0.00000000
B       12.72932759      18.37305177       3.49997020      -0.00012955      -0.00088551       0.00000000
N       11.61705144      19.30060062       3.49997020       0.00023899       0.00083356       0.00000000
B       11.86422633      20.72765602       3.49997020      -0.00017669      -0.00075572       0.00000000
N       13.22366551      21.22709406       3.49997020       0.00013910       0.00074432       0.00000000
B       13.47084040      22.65414945       3.49997020      -0.00002910      -0.00076350       0.00000000
N       12.35856425      23.58169831       3.49997020       0.00021916       0.00085539       0.00000000
B       12.60573914      25.00875369       3.49997020      -0.00017995      -0.00074824       0.00000000
N       13.96517832      25.50819174       3.49997020       0.00000725       0.00076983       0.00000000
B       14.21235321      26.93524714       3.49997020      -0.00015064      -0.00075171       0.00000000
N       13.10007706      27.86279599       3.49997020       0.00020095       0.00074496       0.00000000
B       13.34725195      29.28985138       3.49997020      -0.00015735      -0.00086739       0.00000000
N       14.70669113      29.78928943       3.49997020       0.00011626       0.00073041       0.00000000
B       14.95386602      31.21634482       3.49997020      -0.00020590      -0.00071554       0.00000000
N       13.84158986      32.14389367       3.49997020       0.00021352       0.00072483       0.00000000
B       14.08876476      33.57094907       3.49997020      -0.00012478      -0.00079112       0.00000000
N       15.44820394      34.07038712       3.49997020       0.00031506       0.00072399       0.00000000
B       15.69537882      35.49744250       3.49997020      -0.00028553      -0.00088902       0.00000000
N       14.58310267      36.42499136       3.49997020       0.00035174       0.00093078       0.00000000
B       14.83027756      37.85204675       3.49997020      -0.00015259      -0.00083704       0.00000000
N       16.18971675      38.35148481       3.49997020       0.00045992       0.00133239       0.00000000
B       16.43689164      39.77854019       3.49997020      -0.00015728      -0.00120548       0.00000000
N       15.32461549      40.70608904       3.49997020       0.00023001       0.00167054       0.00000000
B       15.57179037      42.13314443       3.49997020       0.00133017      -0.00161997       0.00000000
N       16.93122956      42.63258248       3.49997020      -0.00063018      -0.00202791       0.00000000
B       17.17840445      44.05963788       3.49997020       0.00080035      -0.00844451       0.00000000
B       12.23499169       0.82055023       3.49997020       0.00057545       0.00618719       0.00000000
N       11.12271553       1.74809908       3.49997020       0.00050277       0.00298671       0.00000000
B       11.36989043       3.17515447       3.49997020      -0.00006502      -0.00128449       0.00000000
N       12.72932960       3.67459252       3.49997020      -0.00002153       0.00050487       0.00000000
B       12.97650450       5.10164791       3.49997020      -0.00003571      -0.00049636       0.00000000
N       11.86422834       6.02919677       3.49997020       0.00011755       0.00010869       0.00000000
B       12.11140323       7.45625215       3.49997020      -0.00006474      -0.00072544       0.00000000
N       13.47084241       7.95569021       3.49997020       0.00002624       0.00059305       0.00000000
B       13.71801730       9.38274560       3.49997020      -0.00008054      -0.00079597       0.00000000
N       12.60574115      10.31029444       3.49997020       0.00005587       0.00068353       0.00000000
B       12.85291604      11.73734984       3.49997020      -0.00010763      -0.00074450       0.00000000
N       14.21235522      12.23678789       3.49997020       0.00011166       0.00087312       0.00000000
B       14.45953011      13.66384328       3.49997020      -0.00007375      -0.00085475       0.00000000
N       13.34725396      14.59139213       3.49997020       0.00013477       0.00077570       0.00000000
B       13.59442885      16.01844753       3.49997020      -0.00005954      -0.00071820       0.00000000
N       14.95386803      16.51788558       3.49997020       0.00008355       0.00087898       0.00000000
B       15.20104292      17.94494097       3.49997020      -0.00007263      -0.00082640       0.00000000
N       14.08876677      18.87248982       3.49997020       0.00006441       0.00085397       0.00000000
B       14.33594166      20.29954521       3.49997020      -0.00005504      -0.00077817       0.00000000
N       15.69538085      20.79898326       3.49997020      -0.00003944       0.00074062       0.00000000
B       15.94255573      22.22603865       3.49997020      -0.00009737      -0.00066442       0.00000000
N       14.83027958      23.15358751       3.49997020       0.00002635       0.00072863       0.00000000
B       15.07745447      24.58064289       3.49997020      -0.00006105      -0.00088515       0.00000000
N       16.43689366      25.08008094       3.49997020       0.00004772       0.00089323       0.00000000
B       16.68406855      26.50713634       3.49997020       0.00000867      -0.00077303       0.00000000
N       15.57179240      27.43468519       3.49997020       0.00005791       0.00076940       0.00000000
B       15.81896728      28.86174058       3.49997020      -0.00002255      -0.00074054       0.00000000
N       17.17840647      29.36117863       3.49997020       0.00020667       0.00077894       0.00000000
B       17.42558136      30.78823402       3.49997020      -0.00008281      -0.00089270       0.00000000
N       16.31330520      31.71578287       3.49997020       0.00023106       0.00080868       0.00000000
B       16.56048010      33.14283827       3.49997020      -0.00019722      -0.00068554       0.00000000
N       17.91991927      33.64227632       3.49997020       0.00034105       0.00090149       0.00000000
B       18.16709417      35.06933170       3.49997020      -0.00006541      -0.00082393       0.00000000
N       17.05481801      35.99688056       3.49997020       0.00028258       0.00103593       0.00000000
B       17.30199290      37.42393595       3.49997020      -0.00018260      -0.00071033       0.00000000
N       18.66143208      37.92337399       3.49997020       0.00037361       0.00130665       0.00000000
B       18.90860697      39.35042939       3.49997020      -0.00017645      -0.00106854       0.00000000
N       17.79633082      40.27797824       3.49997020       0.00018217       0.00114618       0.00000000
B       18.04350571      41.70503363       3.49997020       0.00017347      -0.00012847       0.00000000
N       19.40294489      42.20447168       3.49997020      -0.00019163      -0.00172215       0.00000000
B       19.65011978      43.63152708       3.49997020       0.00034164      -0.00908494       0.00000000
B       14.70670702       0.39243943       3.49997020      -0.00014269       0.00547792       0.00000000
N       13.59443086       1.31998828       3.49997020       0.00033122       0.00304046       0.00000000
B       13.84160576       2.74704367       3.49997020      -0.00035163      -0.00109338       0.00000000
N       15.20104493       3.24648172       3.49997020       0.00027327       0.00021636       0.00000000
B       15.44821983       4.67353711       3.49997020      -0.00013936      -0.00051414       0.00000000
N       14.33594367       5.60108597       3.49997020      -0.00015177       0.00014794       0.00000000
B       14.58311856       7.02814135       3.49997020      -0.00016183      -0.00076914       0.00000000
N       15.94255775       7.52757940       3.49997020       0.00014214       0.00054368       0.00000000
B       16.18973263       8.95463480       3.49997020      -0.00016107      -0.00071974       0.00000000
N       15.07745648       9.88218364       3.49997020       0.00005716       0.00073943       0.00000000
B       15.32463137      11.30923904       3.49997020      -0.00018497      -0.00085917       0.00000000
N       16.68407056      11.80867709       3.49997020       0.00010540       0.00080915       0.00000000
B       16.93124545      13.23573248       3.49997020      -0.00012087      -0.00073558       0.00000000