468
Lattice="27.13354237607182 0.0 0.0 0.0 46.996370811034815 0.0 0.0 0.0 100.0" Properties=species:S:1:pos:R:3:forces:R:3 energy=-90468.37867736816 stress="3.06928660265271e-09 2.404930796728877e-07 -0.0 2.404930796728877e-07 -5.36719424459875e-09 -0.0 -0.0 -0.0 -0.0" free_energy=-90468.37867736816 pbc="T T T"
B        0.43480732      46.14308472       3.49997020       0.00364605      -0.00623860       0.00000000
N        0.08695070      34.29352013       3.49997020       0.00688243      -0.00202590       0.00000000
B        0.78268129      37.10526372       3.49997020       0.00542717       0.00175647       0.00000000
N        1.13055494      38.51116925       3.49997020       0.00117610      -0.00015796       0.00000000
B        0.08694219      39.51534966       3.49997020       0.00497745       0.00116822       0.00000000
N        0.43481583      40.92125519       3.49997020       0.00461005      -0.00235885       0.00000000
B        1.82628553      41.32291284       3.49997020       0.00113800       0.00054809       0.00000000
N        2.17415918      42.72881837       3.49997020       0.00111891      -0.00143504       0.00000000
B        1.13054643      43.73299878       3.49997020       0.00500614       0.00232964       0.00000000
N        1.47842007      45.13890431       3.49997020       0.00302052      -0.00225180       0.00000000
B        2.86988977      45.54056195       3.49997020      -0.00102676      -0.00083641       0.00000000
N        3.21776341      46.94646749       3.49997020       0.00175958      -0.00987351       0.00000000
B        0.08695101      23.84979360       3.49997020       0.00521372       0.00124611       0.00000000
N        0.43482466      25.25569913       3.49997020       0.00431351      -0.00239245       0.00000000
B        1.13055525      28.06744272       3.49997020       0.00547024       0.00165058       0.00000000
N        1.47842889      29.47334825       3.49997020       0.00097125      -0.00029224       0.00000000
B        0.43481615      30.47752866       3.49997020       0.00495439       0.00114397       0.00000000
N        0.78268979      31.88343419       3.49997020       0.00476214      -0.00169409       0.00000000
B        2.17415949      32.28509184       3.49997020       0.00136296       0.00030455       0.00000000
N        2.52203313      33.69099738       3.49997020      -0.00095369      -0.00061891       0.00000000
B        1.47842039      34.69517778       3.49997020       0.00117284       0.00121976       0.00000000
N        1.82629404      36.10108331       3.49997020       0.00082918      -0.00144142       0.00000000
B        3.21776373      36.50274096       3.49997020       0.00053296       0.00097610       0.00000000
N        3.56563738      37.90864649       3.49997020      -0.00075656      -0.00096443       0.00000000
B        2.52202464      38.91282690       3.49997020       0.00042473       0.00044580       0.00000000
N        2.86989828      40.31873244       3.49997020      -0.00079746      -0.00036748       0.00000000
B        4.26136798      40.72039008       3.49997020       0.00056361       0.00081430       0.00000000
N        4.60924162      42.12629561       3.49997020      -0.00046585      -0.00050965       0.00000000
B        3.56562887      43.13047602       3.49997020       0.00009251       0.00039584       0.00000000
N        3.91350252      44.53638155       3.49997020       0.00005011      -0.00025158       0.00000000
B        5.30497222      44.93803920       3.49997020       0.00085426      -0.00047201       0.00000000
N        5.65284586      46.34394473       3.49997020       0.00093763      -0.00772345       0.00000000
B        0.43482497      14.81197260       3.49997020       0.00506017       0.00119969       0.00000000
N        0.78269861      16.21787813       3.49997020       0.00492096      -0.00162222       0.00000000
N        0.08695951      18.62796407       3.49997020       0.00685205      -0.00183625       0.00000000
B        1.47842921      19.02962172       3.49997020       0.00125224       0.00135107       0.00000000
N        1.82630285      20.43552726       3.49997020       0.00082979      -0.00158860       0.00000000
B        0.78269011      21.43970766       3.49997020       0.00548766       0.00173936       0.00000000
N        1.13056376      22.84561319       3.49997020       0.00118265      -0.00018875       0.00000000
B        2.52203345      23.24727085       3.49997020       0.00044449       0.00062340       0.00000000
N        2.86990710      24.65317638       3.49997020      -0.00050788      -0.00083178       0.00000000
B        1.82629435      25.65735678       3.49997020       0.00116702       0.00063366       0.00000000
N        2.17416800      27.06326232       3.49997020       0.00071809      -0.00104648       0.00000000
B        3.56563770      27.46491996       3.49997020       0.00050353       0.00068497       0.00000000
N        3.91351134      28.87082549       3.49997020      -0.00066707      -0.00087028       0.00000000
B        2.86989859      29.87500591       3.49997020       0.00043619       0.00064059       0.00000000
N        3.21777224      31.28091144       3.49997020      -0.00077843      -0.00068878       0.00000000
B        4.60924194      31.68256908       3.49997020       0.00044528       0.00082123       0.00000000
N        4.95711558      33.08847461       3.49997020      -0.00107140      -0.00092715       0.00000000
B        3.91350283      34.09265502       3.49997020       0.00089217       0.00097529       0.00000000
N        4.26137648      35.49856055       3.49997020      -0.00100671      -0.00113204       0.00000000
B        5.65284618      35.90021820       3.49997020       0.00024303       0.00065507       0.00000000
N        6.00071982      37.30612373       3.49997020      -0.00067117      -0.00033334       0.00000000
B        4.95710707      38.31030414       3.49997020       0.00040291       0.00083238       0.00000000
N        5.30498073      39.71620967       3.49997020      -0.00083900      -0.00071457       0.00000000
B        6.69645041      40.11786733       3.49997020       0.00019162       0.00080732       0.00000000
N        7.04432406      41.52377286       3.49997020      -0.00028433      -0.00016677       0.00000000
B        6.00071132      42.52795326       3.49997020       0.00019521       0.00042286       0.00000000
N        6.34858496      43.93385879       3.49997020      -0.00067814      -0.00005456       0.00000000
B        7.74005465      44.33551645       3.49997020       0.00052494       0.00076311       0.00000000
N        8.08792831      45.74142198       3.49997020      -0.00086966      -0.00283227       0.00000000
B        7.04431556      46.74560239       3.49997020       0.00011913      -0.00580576       0.00000000
N        0.08696833       2.96240801       3.49997020       0.00683858      -0.00169180       0.00000000
B        0.78269893       5.77415160       3.49997020       0.00539475       0.00164894       0.00000000
N        1.13057257       7.18005713       3.49997020       0.00127185      -0.00020956       0.00000000
B        0.08695982       8.18423754       3.49997020       0.00517841       0.00127647       0.00000000
N        0.43483348       9.59014307       3.49997020       0.00427200      -0.00232680       0.00000000
B        1.82630317       9.99180073       3.49997020       0.00117253       0.00055235       0.00000000
N        2.17417682      11.39770626       3.49997020       0.00065430      -0.00104644       0.00000000
B        1.13056407      12.40188666       3.49997020       0.00537714       0.00164932       0.00000000
N        1.47843772      13.80779219       3.49997020       0.00112342      -0.00033159       0.00000000
B        2.86990742      14.20944985       3.49997020       0.00046158       0.00060506       0.00000000
N        3.21778106      15.61535538       3.49997020      -0.00085249      -0.00068138       0.00000000
B        2.17416831      16.61953579       3.49997020       0.00134349       0.00042217       0.00000000
N        2.52204196      18.02544132       3.49997020      -0.00087792      -0.00071514       0.00000000
B        3.91351166      18.42709896       3.49997020       0.00083760       0.00100766       0.00000000
N        4.26138530      19.83300449       3.49997020      -0.00103055      -0.00107961       0.00000000
B        3.21777255      20.83718490       3.49997020       0.00045821       0.00088339       0.00000000
N        3.56564620      22.24309044       3.49997020      -0.00069402      -0.00092053       0.00000000
B        4.95711589      22.64474808       3.49997020       0.00032386       0.00076924       0.00000000
N        5.30498954      24.05065361       3.49997020      -0.00098544      -0.00079933       0.00000000
B        4.26137679      25.05483402       3.49997020       0.00049326       0.00090673       0.00000000
N        4.60925044      26.46073955       3.49997020      -0.00098866      -0.00101523       0.00000000
B        6.00072013      26.86239721       3.49997020       0.00022765       0.00083548       0.00000000
N        6.34859378      28.26830274       3.49997020      -0.00071536      -0.00062727       0.00000000
B        5.30498104      29.27248314       3.49997020       0.00041236       0.00074752       0.00000000
N        5.65285468      30.67838867       3.49997020      -0.00087971      -0.00079632       0.00000000
B        7.04432437      31.08004633       3.49997020       0.00025783       0.00081153       0.00000000
N        7.39219803      32.48595186       3.49997020      -0.00036901      -0.00067784       0.00000000
B        6.34858528      33.49013227       3.49997020       0.00024961       0.00091994       0.00000000
N        6.69645892      34.89603780       3.49997020      -0.00048260      -0.00081965       0.00000000
B        8.08792862      35.29769545       3.49997020       0.00019430       0.00081644       0.00000000
N        8.43580227      36.70360098       3.49997020      -0.00026406      -0.00074487       0.00000000
B        7.39218952      37.70778139       3.49997020       0.00017275       0.00066486       0.00000000
N        7.74006316      39.11368692       3.49997020      -0.00032109      -0.00068730       0.00000000
B        9.13153286      39.51534456       3.49997020       0.00013181       0.00084377       0.00000000
N        9.47940650      40.92125009       3.49997020      -0.00036095      -0.00004941       0.00000000
B        8.43579376      41.92543050       3.49997020       0.00017000       0.00056809       0.00000000
N        8.78366740      43.33133603       3.49997020      -0.00001885      -0.00041280       0.00000000
B       10.17513710      43.73299368       3.49997020      -0.00003029       0.00050487       0.00000000
N       10.52301074      45.13889922       3.49997020       0.00099341      -0.00235527       0.00000000
B        9.47939800      46.14307962       3.49997020      -0.00108257      -0.00601721       0.00000000
N        0.78270744       0.55232207       3.49997020       0.00529031       0.00616163       0.00000000
B        2.17417714       0.95397973       3.49997020      -0.00018391       0.00589279       0.00000000
N        2.52205078       2.35988526       3.49997020      -0.00078095       0.00157369       0.00000000
B        1.47843803       3.36406567       3.49997020       0.00131410       0.00109956       0.00000000
N        1.82631167       4.76997120       3.49997020       0.00118708      -0.00154944       0.00000000
B        3.21778137       5.17162885       3.49997020       0.00028853       0.00099748       0.00000000
N        3.56565502       6.57753438       3.49997020      -0.00041705      -0.00121121       0.00000000
B        2.52204227       7.58171479       3.49997020       0.00040559       0.00060700       0.00000000
N        2.86991591       8.98762032       3.49997020      -0.00059366      -0.00070214       0.00000000
B        4.26138561       9.38927796       3.49997020       0.00050547       0.00085841       0.00000000
N        4.60925926      10.79518349       3.49997020      -0.00087946      -0.00093945       0.00000000
B        3.56564651      11.79936390       3.49997020       0.00057125       0.00087066       0.00000000
N        3.91352015      13.20526944       3.49997020      -0.00068039      -0.00093220       0.00000000
B        5.30498985      13.60692709       3.49997020       0.00031125       0.00086521       0.00000000
N        5.65286350      15.01283262       3.49997020      -0.00081323      -0.00081405       0.00000000
B        4.60925075      16.01701302       3.49997020       0.00042811       0.00086319       0.00000000
N        4.95712440      17.42291855       3.49997020      -0.00104799      -0.00087699       0.00000000
B        6.34859409      17.82457621       3.49997020       0.00016732       0.00084178       0.00000000
N        6.69646775      19.23048174       3.49997020      -0.00042004      -0.00065465       0.00000000
B        5.65285500      20.23466215       3.49997020       0.00028550       0.00078569       0.00000000
N        6.00072864      21.64056768       3.49997020      -0.00071929      -0.00066436       0.00000000
B        7.39219834      22.04222533       3.49997020       0.00017426       0.00087103       0.00000000
N        7.74007198      23.44813086       3.49997020      -0.00024396      -0.00087930       0.00000000
B        6.69645924      24.45231127       3.49997020       0.00020432       0.00082834       0.00000000
N        7.04433288      25.85821680       3.49997020      -0.00037697      -0.00071838       0.00000000
B        8.43580258      26.25987445       3.49997020       0.00013621       0.00072898       0.00000000
N        8.78367622      27.66577998       3.49997020      -0.00016076      -0.00085020       0.00000000
B        7.74006348      28.66996039       3.49997020       0.00015179       0.00082006       0.00000000
N        8.08793712      30.07586592       3.49997020      -0.00034025      -0.00088518       0.00000000
B        9.47940682      30.47752356       3.49997020       0.00015176       0.00070328       0.00000000
N        9.82728046      31.88342910       3.49997020      -0.00003857      -0.00070092       0.00000000
B        8.78366772      32.88760950       3.49997020       0.00014616       0.00059717       0.00000000
N        9.13154137      34.29351503       3.49997020      -0.00022535      -0.00074935       0.00000000
B       10.52301106      34.69517269       3.49997020       0.00018507       0.00083683       0.00000000
N       10.87088471      36.10107822       3.49997020      -0.00013124      -0.00087611       0.00000000
B        9.82727196      37.10525862       3.49997020       0.00015733       0.00091316       0.00000000
N       10.17514561      38.51116416       3.49997020      -0.00013158      -0.00084788       0.00000000
B       11.56661531      38.91282181       3.49997020       0.00014751       0.00063809       0.00000000
N       11.91448895      40.31872734       3.49997020      -0.00019134      -0.00040869       0.00000000
B       10.87087620      41.32290775       3.49997020       0.00014576       0.00071931       0.00000000
N       11.21874985      42.72881328       3.49997020      -0.00001096       0.00001919       0.00000000
B       12.61021955      43.13047093       3.49997020      -0.00009222       0.00008627       0.00000000
N       12.95809319      44.53637646       3.49997020      -0.00018283       0.00000396       0.00000000
B       11.91448044      45.54055687       3.49997020      -0.00044413      -0.00062754       0.00000000
N       12.26235409      46.94646240       3.49997020       0.00145085      -0.00979690       0.00000000
B        4.60925957       0.35145696       3.49997020      -0.00137736       0.00882785       0.00000000
N        4.95713321       1.75736250       3.49997020       0.00055379       0.00169969       0.00000000
B        3.91352047       2.76154290       3.49997020       0.00048728       0.00074007       0.00000000
N        4.26139412       4.16744843       3.49997020      -0.00050520      -0.00114872       0.00000000
B        5.65286381       4.56910609       3.49997020       0.00009562       0.00103611       0.00000000
N        6.00073746       5.97501162       3.49997020      -0.00080538      -0.00124716       0.00000000
B        4.95712472       6.97919202       3.49997020       0.00030501       0.00092555       0.00000000
N        5.30499836       8.38509756       3.49997020      -0.00088400      -0.00098221       0.00000000
B        6.69646806       8.78675521       3.49997020       0.00024053       0.00090145       0.00000000
N        7.04434170      10.19266074       3.49997020      -0.00043940      -0.00071873       0.00000000
B        6.00072896      11.19684115       3.49997020       0.00024542       0.00074453       0.00000000
N        6.34860260      12.60274668       3.49997020      -0.00062202      -0.00063873       0.00000000
B        7.74007230      13.00440433       3.49997020       0.00014444       0.00074157       0.00000000
N        8.08794594      14.41030986       3.49997020      -0.00026426      -0.00086428       0.00000000
B        7.04433320      15.41449027       3.49997020       0.00022644       0.00079039       0.00000000
N        7.39220684      16.82039580       3.49997020      -0.00032650      -0.00086850       0.00000000
B        8.78367654      17.22205344       3.49997020       0.00018995       0.00078202       0.00000000
N        9.13155018      18.62795899       3.49997020      -0.00026343      -0.00068717       0.00000000
B        8.08793743      19.63213939       3.49997020       0.00019803       0.00077508       0.00000000
N        8.43581109      21.03804492       3.49997020      -0.00015746      -0.00084904       0.00000000
B        9.82728078      21.43970257       3.49997020       0.00020639       0.00076550       0.00000000
N       10.17515443      22.84560810       3.49997020      -0.00017081      -0.00081021       0.00000000
B        9.13154168      23.84978850       3.49997020       0.00018545       0.00074203       0.00000000
N        9.47941533      25.25569404       3.49997020      -0.00016867      -0.00076144       0.00000000
B       10.87088503      25.65735169       3.49997020       0.00017708       0.00058301       0.00000000
N       11.21875867      27.06325722       3.49997020      -0.00014156      -0.00082478       0.00000000
B       10.17514592      28.06743763       3.49997020       0.00021709       0.00086868       0.00000000
N       10.52301957      29.47334316       3.49997020      -0.00025025      -0.00083052       0.00000000
B       11.91448927      29.87500081       3.49997020       0.00016161       0.00084418       0.00000000
N       12.26236291      31.28090634       3.49997020      -0.00013120      -0.00074290       0.00000000
B       11.21875016      32.28508675       3.49997020       0.00014953       0.00084453       0.00000000
N       11.56662381      33.69099228       3.49997020      -0.00018968      -0.00084530       0.00000000
B       12.95809350      34.09264993       3.49997020       0.00014507       0.00070014       0.00000000
N       13.30596715      35.49855546       3.49997020      -0.00003005      -0.00073907       0.00000000
B       12.26235440      36.50273587       3.49997020       0.00013433       0.00080154       0.00000000
N       12.61022805      37.90864140       3.49997020      -0.00018309      -0.00075999       0.00000000
B       14.00169774      38.31029905       3.49997020       0.00017848       0.00082044       0.00000000
N       14.34957140      39.71620458       3.49997020      -0.00018368      -0.00059448       0.00000000
B       13.30595865      40.72038499       3.49997020       0.00015089       0.00065522       0.00000000
N       13.65383229      42.12629052       3.49997020      -0.00003884       0.00005602       0.00000000
B       15.04530199      42.52794817       3.49997020       0.00013766       0.00059402       0.00000000
N       15.39317564      43.93385370       3.49997020      -0.00057154      -0.00010148       0.00000000
B       14.34956289      44.93803411       3.49997020       0.00092473      -0.00059834       0.00000000
N       14.69743653      46.34393964       3.49997020       0.00087484      -0.00763443       0.00000000
B       16.08890623      46.74559729       3.49997020       0.00017962      -0.00579907       0.00000000
N        7.39221566       1.15483974       3.49997020       0.00113188       0.00727286       0.00000000
B        6.34860291       2.15902015       3.49997020      -0.00112570       0.00194481       0.00000000
N        6.69647656       3.56492568       3.49997020      -0.00015861      -0.00146527       0.00000000
B        8.08794626       3.96658333       3.49997020       0.00044807       0.00149103       0.00000000
N        8.43581990       5.37248886       3.49997020      -0.00032641      -0.00175518       0.00000000
B        7.39220715       6.37666927       3.49997020       0.00021755       0.00084668       0.00000000
N        7.74008081       7.78257480       3.49997020      -0.00031611      -0.00096596       0.00000000
B        9.13155050       8.18423245       3.49997020       0.00020015       0.00080769       0.00000000
N        9.47942415       9.59013799       3.49997020      -0.00011570      -0.00081790       0.00000000
B        8.43581140      10.59431839       3.49997020       0.00013645       0.00077696       0.00000000
N        8.78368505      12.00022392       3.49997020      -0.00008521      -0.00069934       0.00000000
B       10.17515475      12.40188157       3.49997020       0.00015838       0.00080041       0.00000000
N       10.52302839      13.80778710       3.49997020      -0.00021133      -0.00082051       0.00000000
B        9.47941564      14.81196751       3.49997020       0.00020854       0.00078619       0.00000000
N        9.82728928      16.21787304       3.49997020      -0.00015805      -0.00083588       0.00000000
B       11.21875898      16.61953069       3.49997020       0.00014715       0.00079004       0.00000000
N       11.56663263      18.02543622       3.49997020      -0.00014979      -0.00079673       0.00000000
B       10.52301988      19.02961663       3.49997020       0.00021531       0.00074660       0.00000000
N       10.87089352      20.43552216       3.49997020      -0.00016090      -0.00070302       0.00000000
B       12.26236322      20.83717981       3.49997020       0.00014616       0.00080378       0.00000000
N       12.61023687      22.24308534       3.49997020      -0.00013037      -0.00082123       0.00000000
B       11.56662412      23.24726575       3.49997020       0.00017555       0.00081345       0.00000000
N       11.91449777      24.65317128       3.49997020      -0.00027096      -0.00075362       0.00000000
B       13.30596746      25.05482894       3.49997020       0.00024401       0.00079242       0.00000000
N       13.65384112      26.46073447       3.49997020      -0.00020920      -0.00089184       0.00000000
B       12.61022837      27.46491487       3.49997020       0.00018530       0.00091827       0.00000000
N       12.95810201      28.87082040       3.49997020      -0.00013199      -0.00091724       0.00000000
B       14.34957171      29.27247805       3.49997020       0.00017660       0.00077538       0.00000000
N       14.69744535      30.67838358       3.49997020      -0.00019454      -0.00081477       0.00000000
B       13.65383261      31.68256400       3.49997020       0.00020188       0.00079910       0.00000000
N       14.00170625      33.08846953       3.49997020      -0.00018685      -0.00083019       0.00000000
B       15.39317595      33.49012717       3.49997020       0.00012864       0.00073760       0.00000000
N       15.74104959      34.89603270       3.49997020      -0.00023267      -0.00078088       0.00000000
B       14.69743685      35.90021311       3.49997020       0.00011497       0.00085788       0.00000000
N       15.04531049      37.30611864       3.49997020      -0.00016039      -0.00083739       0.00000000
B       16.43678019      37.70777629       3.49997020       0.00015151       0.00099052       0.00000000
N       16.78465383      39.11368182       3.49997020      -0.00026202      -0.00085449       0.00000000
B       15.74104109      40.11786223       3.49997020       0.00018001       0.00070739       0.00000000
N       16.08891474      41.52376776       3.49997020      -0.00012559      -0.00019766       0.00000000
B       17.48038443      41.92542541       3.49997020       0.00009748       0.00059207       0.00000000
N       17.82825807      43.33133095       3.49997020       0.00003433      -0.00020295       0.00000000
B       16.78464533      44.33551135       3.49997020       0.00061252       0.00090948       0.00000000
N       17.13251898      45.74141688       3.49997020      -0.00094823      -0.00290651       0.00000000
B       18.52398867      46.14307454       3.49997020      -0.00116505      -0.00615117       0.00000000
N        9.82729811       0.55231699       3.49997020      -0.00032988       0.00662421       0.00000000
B        8.78368536       1.55649740       3.49997020       0.00079318       0.00220554       0.00000000
N        9.13155900       2.96240293       3.49997020      -0.00049338      -0.00145385       0.00000000
B       10.52302870       3.36406057       3.49997020       0.00054792       0.00103955       0.00000000
N       10.87090235       4.76996610       3.49997020      -0.00006412      -0.00156995       0.00000000
B        9.82728960       5.77414651       3.49997020       0.00016060       0.00096420       0.00000000
N       10.17516324       7.18005204       3.49997020      -0.00009160      -0.00106653       0.00000000
B       11.56663294       7.58170969       3.49997020       0.00016967       0.00080007       0.00000000
N       11.91450659       8.98761522       3.49997020      -0.00027527      -0.00073511       0.00000000
B       10.87089384       9.99179563       3.49997020       0.00016936       0.00081637       0.00000000
N       11.21876749      11.39770116       3.49997020      -0.00025407      -0.00083699       0.00000000
B       12.61023718      11.79935882       3.49997020       0.00020830       0.00083084       0.00000000
N       12.95811082      13.20526435       3.49997020      -0.00024303      -0.00081635       0.00000000
B       11.91449809      14.20944475       3.49997020       0.00014279       0.00075357       0.00000000
N       12.26237173      15.61535028       3.49997020      -0.00014897      -0.00080069       0.00000000
B       13.65384142      16.01700794       3.49997020       0.00019483       0.00090216       0.00000000
N       14.00171507      17.42291347       3.49997020      -0.00014319      -0.00088612       0.00000000
B       12.95810233      18.42709388       3.49997020       0.00016251       0.00091101       0.00000000
N       13.30597597      19.83299941       3.49997020      -0.00015448      -0.00075259       0.00000000
B       14.69744567      20.23465705       3.49997020       0.00019813       0.00072645       0.00000000
N       15.04531931      21.64056258       3.49997020      -0.00023256      -0.00082591       0.00000000
B       14.00170657      22.64474300       3.49997020       0.00014136       0.00078579       0.00000000
N       14.34958021      24.05064853       3.49997020      -0.00019316      -0.00084847       0.00000000
B       15.74104991      24.45230617       3.49997020       0.00006525       0.00072938       0.00000000
N       16.08892355      25.85821170       3.49997020      -0.00014899      -0.00073964       0.00000000
B       15.04531081      26.86239211       3.49997020       0.00011251       0.00075184       0.00000000
N       15.39318445      28.26829764       3.49997020      -0.00017233      -0.00064456       0.00000000
B       16.78465415      28.66995529       3.49997020       0.00013662       0.00079387       0.00000000
N       17.13252779      30.07586083       3.49997020      -0.00016140      -0.00079646       0.00000000
B       16.08891504      31.08004123       3.49997020       0.00016157       0.00080789       0.00000000
N       16.43678870      32.48594676       3.49997020      -0.00017884      -0.00087921       0.00000000
B       17.82825839      32.88760442       3.49997020       0.00004291       0.00093061       0.00000000
N       18.17613204      34.29350995       3.49997020      -0.00011126      -0.00071344       0.00000000
B       17.13251929      35.29769035       3.49997020       0.00019429       0.00059172       0.00000000
N       17.48039294      36.70359589       3.49997020      -0.00014889      -0.00058683       0.00000000
B       18.87186264      37.10525354       3.49997020       0.00017980       0.00069041       0.00000000
N       19.21973628      38.51115907       3.49997020       0.00004001      -0.00065795       0.00000000
B       18.17612353      39.51533948       3.49997020       0.00024731       0.00081684       0.00000000
N       18.52399718      40.92124501       3.49997020      -0.00029310      -0.00019683       0.00000000
B       19.91546688      41.32290265       3.49997020       0.00015325       0.00071401       0.00000000
N       20.26334052      42.72880818       3.49997020       0.00021493      -0.00014764       0.00000000
B       19.21972777      43.73298859       3.49997020      -0.00011439       0.00040789       0.00000000
N       19.56760141      45.13889412       3.49997020       0.00105374      -0.00227160       0.00000000
B       20.95907111      45.54055177       3.49997020      -0.00035877      -0.00041868       0.00000000
N       21.30694476      46.94645730       3.49997020       0.00125317      -0.00999347       0.00000000
B       11.21876781       0.95397463       3.49997020      -0.00106501       0.00650092       0.00000000