532
Lattice="28.929424265369473 0.0 0.0 0.0 50.106951218706484 0.0 0.0 0.0 100.0" Properties=species:S:1:pos:R:3:forces:R:3 energy=-102840.11419677734 stress="-3.2009861428150543e-09 2.7962886406385223e-07 -0.0 2.7962886406385223e-07 5.6555204963615324e-09 -0.0 -0.0 -0.0 -0.0" free_energy=-102840.11419677734 pbc="T T T"
B        0.05435210      44.01654962       3.49997020       0.00621085      -0.00163334       0.00000000
N        0.92440840      46.77933391       3.49997020       0.00667035       0.00122809       0.00000000
B        1.35944699      48.16075921       3.49997020       0.00204989      -0.00124899       0.00000000
N        0.38061597      49.22818594       3.49997020       0.00510421      -0.00749243       0.00000000
N        0.70689836      37.73742028       3.49997020       0.00672990       0.00168147       0.00000000
B        1.14193695      39.11884557       3.49997020       0.00083664      -0.00034832       0.00000000
N        0.16310594      40.18627230       3.49997020       0.00610972       0.00090390       0.00000000
B        0.59814453      41.56769760       3.49997020       0.00436321      -0.00188230       0.00000000
N        2.01199325      41.88162985       3.49997020       0.00121776       0.00028981       0.00000000
B        2.44703184      43.26305515       3.49997020      -0.00038113      -0.00105245       0.00000000
N        1.46820082      44.33048189       3.49997020       0.00212111       0.00153059       0.00000000
B        1.90323941      45.71190717       3.49997020       0.00084777      -0.00140124       0.00000000
N        3.31708813      46.02583944       3.49997020      -0.00027735       0.00048226       0.00000000
B        3.75212672      47.40726473       3.49997020       0.00003266      -0.00026600       0.00000000
N        2.77329571      48.47469146       3.49997020      -0.00087091      -0.00205209       0.00000000
B        3.20833430      49.85611675       3.49997020       0.00145591      -0.00946634       0.00000000
N        0.48938832      28.69550665       3.49997020       0.00626800       0.00060929       0.00000000
B        0.92442691      30.07693194       3.49997020       0.00440920      -0.00162151       0.00000000
B        0.38063449      32.52578396       3.49997020       0.00632433      -0.00177139       0.00000000
N        1.79448321      32.83971623       3.49997020       0.00184723       0.00146925       0.00000000
B        2.22952180      34.22114152       3.49997020       0.00077197      -0.00198682       0.00000000
N        1.25069079      35.28856826       3.49997020       0.00658972       0.00191943       0.00000000
B        1.68572937      36.66999355       3.49997020       0.00113985      -0.00056185       0.00000000
N        3.09957809      36.98392581       3.49997020      -0.00087072       0.00055782       0.00000000
B        3.53461668      38.36535110       3.49997020       0.00032988      -0.00099365       0.00000000
N        2.55578567      39.43277783       3.49997020      -0.00065112       0.00069018       0.00000000
B        2.99082426      40.81420312       3.49997020       0.00005905      -0.00021820       0.00000000
N        4.40467298      41.12813539       3.49997020      -0.00032977       0.00103996       0.00000000
B        4.83971157      42.50956068       3.49997020      -0.00002040      -0.00099597       0.00000000
N        3.86088055      43.57698741       3.49997020      -0.00024942       0.00103829       0.00000000
B        4.29591914      44.95841271       3.49997020       0.00006427      -0.00048038       0.00000000
N        5.70976787      45.27234496       3.49997020      -0.00022905       0.00135393       0.00000000
B        6.14480645      46.65377026       3.49997020      -0.00050634      -0.00106484       0.00000000
N        5.16597544      47.72119699       3.49997020       0.00064896      -0.00130905       0.00000000
B        5.60101403      49.10262228       3.49997020       0.00097997      -0.00725993       0.00000000
N        7.01486275      49.41655455       3.49997020       0.00040157      -0.00663294       0.00000000
N        0.27187829      19.65359302       3.49997020       0.00613108       0.00083539       0.00000000
B        0.70691688      21.03501831       3.49997020       0.00440086      -0.00182447       0.00000000
B        0.16312445      23.48387033       3.49997020       0.00624086      -0.00179845       0.00000000
N        1.57697317      23.79780260       3.49997020       0.00192107       0.00175276       0.00000000
B        2.01201176      25.17922789       3.49997020       0.00076998      -0.00199362       0.00000000
N        1.03318075      26.24665462       3.49997020       0.00676451       0.00191665       0.00000000
B        1.46821934      27.62807992       3.49997020       0.00077276      -0.00031893       0.00000000
N        2.88206806      27.94201218       3.49997020      -0.00068236       0.00060268       0.00000000
B        3.31710665      29.32343748       3.49997020       0.00012519      -0.00011463       0.00000000
N        2.33827563      30.39086421       3.49997020       0.00132930      -0.00007281       0.00000000
B        2.77331422      31.77228950       3.49997020      -0.00014607      -0.00077227       0.00000000
N        4.18716294      32.08622176       3.49997020      -0.00023089       0.00072429       0.00000000
B        4.62220153      33.46764705       3.49997020      -0.00002277      -0.00113533       0.00000000
N        3.64337052      34.53507378       3.49997020      -0.00056770       0.00072847       0.00000000
B        4.07840911      35.91649907       3.49997020       0.00027319      -0.00058341       0.00000000
N        5.49225783      36.23043134       3.49997020      -0.00029339       0.00082737       0.00000000
B        5.92729641      37.61185663       3.49997020      -0.00017806      -0.00095395       0.00000000
N        4.94846540      38.67928337       3.49997020      -0.00028572       0.00076536       0.00000000
B        5.38350399      40.06070866       3.49997020      -0.00008722      -0.00081637       0.00000000
N        6.79735272      40.37464091       3.49997020      -0.00018252       0.00098100       0.00000000
B        7.23239130      41.75606621       3.49997020      -0.00019764      -0.00080825       0.00000000
N        6.25356029      42.82349294       3.49997020      -0.00028144       0.00084547       0.00000000
B        6.68859887      44.20491823       3.49997020      -0.00009594      -0.00069445       0.00000000
N        8.10244760      44.51885050       3.49997020       0.00013901       0.00148915       0.00000000
B        8.53748619      45.90027579       3.49997020      -0.00017682      -0.00101232       0.00000000
N        7.55865518      46.96770252       3.49997020       0.00041000       0.00152894       0.00000000
B        7.99369377      48.34912782       3.49997020       0.00075724      -0.00241516       0.00000000
N        9.40754248      48.66306007       3.49997020      -0.00098130      -0.00107813       0.00000000
B        9.84258107      50.04448537       3.49997020       0.00168265      -0.00973764       0.00000000
N        0.05436825      10.61167939       3.49997020       0.00614733       0.00095615       0.00000000
B        0.48940684      11.99310469       3.49997020       0.00370779      -0.00218068       0.00000000
N        1.35946313      14.75588897       3.49997020       0.00639233       0.00185038       0.00000000
B        1.79450172      16.13731426       3.49997020       0.00123992      -0.00048881       0.00000000
N        0.81567071      17.20474099       3.49997020       0.00671951       0.00149692       0.00000000
B        1.25070930      18.58616628       3.49997020       0.00079028      -0.00017267       0.00000000
N        2.66455802      18.90009855       3.49997020      -0.00065060       0.00079767       0.00000000
B        3.09959661      20.28152384       3.49997020       0.00005086      -0.00036179       0.00000000
N        2.12076560      21.34895058       3.49997020       0.00126863       0.00003537       0.00000000
B        2.55580418      22.73037587       3.49997020      -0.00023667      -0.00085501       0.00000000
N        3.96965290      23.04430813       3.49997020      -0.00021506       0.00079928       0.00000000
B        4.40469149      24.42573342       3.49997020      -0.00003719      -0.00102684       0.00000000
N        3.42586048      25.49316015       3.49997020      -0.00069253       0.00084883       0.00000000
B        3.86089907      26.87458544       3.49997020       0.00042201      -0.00081292       0.00000000
N        5.27474780      27.18851771       3.49997020      -0.00040209       0.00067187       0.00000000
B        5.70978638      28.56994300       3.49997020      -0.00009185      -0.00067139       0.00000000
N        4.73095536      29.63736973       3.49997020      -0.00056436       0.00055852       0.00000000
B        5.16599395      31.01879503       3.49997020      -0.00019610      -0.00067738       0.00000000
N        6.57984268      31.33272729       3.49997020      -0.00018580       0.00088737       0.00000000
B        7.01488126      32.71415259       3.49997020      -0.00018780      -0.00099798       0.00000000
N        6.03605026      33.78157932       3.49997020      -0.00032506       0.00101259       0.00000000
B        6.47108884      35.16300461       3.49997020      -0.00018828      -0.00095016       0.00000000
N        7.88493756      35.47693687       3.49997020      -0.00006167       0.00083916       0.00000000
B        8.31997615      36.85836216       3.49997020      -0.00013596      -0.00065565       0.00000000
N        7.34114514      37.92578889       3.49997020       0.00011764       0.00075623       0.00000000
B        7.77618372      39.30721418       3.49997020      -0.00013379      -0.00079631       0.00000000
N        9.19003245      39.62114645       3.49997020       0.00010016       0.00087859       0.00000000
B        9.62507104      41.00257174       3.49997020      -0.00016262      -0.00082189       0.00000000
N        8.64624002      42.06999847       3.49997020       0.00025006       0.00076965       0.00000000
B        9.08127861      43.45142377       3.49997020      -0.00017166      -0.00057880       0.00000000
N       10.49512733      43.76535602       3.49997020       0.00017639       0.00137028       0.00000000
B       10.93016592      45.14678132       3.49997020      -0.00011930      -0.00104914       0.00000000
N        9.95133491      46.21420805       3.49997020       0.00002926       0.00119854       0.00000000
B       10.38637350      47.59563334       3.49997020      -0.00009984      -0.00086408       0.00000000
N       11.80022222      47.90956561       3.49997020       0.00088730      -0.00080131       0.00000000
B       12.23526081      49.29099090       3.49997020       0.00099608      -0.00711852       0.00000000
B        0.27189680       2.95119105       3.49997020       0.00584976      -0.00226195       0.00000000
N        1.14195310       5.71397535       3.49997020       0.00659539       0.00177100       0.00000000
B        1.57699169       7.09540063       3.49997020       0.00113686      -0.00049573       0.00000000
N        0.59816067       8.16282737       3.49997020       0.00676285       0.00161237       0.00000000
B        1.03319926       9.54425266       3.49997020       0.00086933      -0.00023160       0.00000000
N        2.44704798       9.85818492       3.49997020      -0.00062474       0.00085880       0.00000000
B        2.88208657      11.23961021       3.49997020       0.00032297      -0.00081921       0.00000000
N        1.90325556      12.30703694       3.49997020       0.00112250       0.00052341       0.00000000
B        2.33829415      13.68846224       3.49997020       0.00097415      -0.00162683       0.00000000
N        3.75214287      14.00239450       3.49997020      -0.00074958       0.00058470       0.00000000
B        4.18718146      15.38381980       3.49997020       0.00029839      -0.00066474       0.00000000
N        3.20835044      16.45124653       3.49997020      -0.00100618       0.00058367       0.00000000
B        3.64338903      17.83267182       3.49997020       0.00037051      -0.00087295       0.00000000
N        5.05723776      18.14660408       3.49997020      -0.00034311       0.00074464       0.00000000
B        5.49227634      19.52802937       3.49997020      -0.00006935      -0.00077772       0.00000000
N        4.51344533      20.59545610       3.49997020      -0.00054326       0.00090919       0.00000000
B        4.94848392      21.97688139       3.49997020      -0.00003445      -0.00077958       0.00000000
N        6.36233264      22.29081366       3.49997020      -0.00036534       0.00086733       0.00000000
B        6.79737122      23.67223895       3.49997020      -0.00010208      -0.00093558       0.00000000
N        5.81854022      24.73966568       3.49997020      -0.00036667       0.00110744       0.00000000
B        6.25357880      26.12109098       3.49997020      -0.00008435      -0.00081121       0.00000000
N        7.66742753      26.43502323       3.49997020      -0.00011325       0.00072629       0.00000000
B        8.10246612      27.81644853       3.49997020      -0.00017555      -0.00078099       0.00000000
N        7.12363510      28.88387526       3.49997020      -0.00023024       0.00088747       0.00000000
B        7.55867368      30.26530055       3.49997020      -0.00019721      -0.00080170       0.00000000
N        8.97252241      30.57923282       3.49997020       0.00018839       0.00081951       0.00000000
B        9.40756100      31.96065811       3.49997020      -0.00015805      -0.00096124       0.00000000
N        8.42872999      33.02808484       3.49997020       0.00011564       0.00097303       0.00000000
B        8.86376858      34.40951014       3.49997020      -0.00026205      -0.00097500       0.00000000
N       10.27761729      34.72344240       3.49997020       0.00039514       0.00059641       0.00000000
B       10.71265588      36.10486770       3.49997020      -0.00018764      -0.00049291       0.00000000
N        9.73382487      37.17229443       3.49997020       0.00020412       0.00054832       0.00000000
B       10.16886346      38.55371972       3.49997020      -0.00019992      -0.00073216       0.00000000
N       11.58271218      38.86765198       3.49997020       0.00032504       0.00058449       0.00000000
B       12.01775077      40.24907727       3.49997020      -0.00025936      -0.00076003       0.00000000
N       11.03891976      41.31650400       3.49997020       0.00008870       0.00071951       0.00000000
B       11.47395834      42.69792929       3.49997020      -0.00017079      -0.00062519       0.00000000
N       12.88780706      43.01186156       3.49997020       0.00014134       0.00116866       0.00000000
B       13.32284565      44.39328685       3.49997020      -0.00016881      -0.00095773       0.00000000
N       12.34401464      45.46071358       3.49997020       0.00024451       0.00148823       0.00000000
B       12.77905323      46.84213888       3.49997020      -0.00067755      -0.00110103       0.00000000
N       14.19290195      47.15607113       3.49997020       0.00059212       0.00169317       0.00000000
B       14.62794054      48.53749643       3.49997020      -0.00085804      -0.00233460       0.00000000
N       13.64910952      49.60492316       3.49997020       0.00030650      -0.00703046       0.00000000
B        0.81568923       0.50233903       3.49997020       0.00424797       0.00485891       0.00000000
N        2.22953795       0.81627129       3.49997020       0.00070461       0.00747270       0.00000000
B        2.66457653       2.19769658       3.49997020      -0.00117131       0.00053837       0.00000000
N        1.68574552       3.26512331       3.49997020       0.00227356       0.00160955       0.00000000
B        2.12078411       4.64654860       3.49997020       0.00075858      -0.00206603       0.00000000
N        3.53463283       4.96048087       3.49997020      -0.00048497       0.00019148       0.00000000
B        3.96967142       6.34190616       3.49997020       0.00026461      -0.00058606       0.00000000
N        2.99084041       7.40933290       3.49997020      -0.00091639       0.00063408       0.00000000
B        3.42587900       8.79075819       3.49997020       0.00035762      -0.00081324       0.00000000
N        4.83972771       9.10469045       3.49997020      -0.00030529       0.00078367       0.00000000
B        5.27476630      10.48611574       3.49997020      -0.00011753      -0.00073524       0.00000000
N        4.29593529      11.55354248       3.49997020      -0.00042237       0.00097593       0.00000000
B        4.73097388      12.93496777       3.49997020      -0.00003283      -0.00094977       0.00000000
N        6.14482261      13.24890003       3.49997020      -0.00020432       0.00088928       0.00000000
B        6.57986119      14.63032532       3.49997020      -0.00012222      -0.00078703       0.00000000
N        5.60103018      15.69775205       3.49997020      -0.00021966       0.00084269       0.00000000
B        6.03606876      17.07917735       3.49997020      -0.00017897      -0.00084980       0.00000000
N        7.44991749      17.39310961       3.49997020       0.00006639       0.00081755       0.00000000
B        7.88495608      18.77453491       3.49997020      -0.00017718      -0.00074807       0.00000000
N        6.90612507      19.84196164       3.49997020      -0.00014091       0.00086101       0.00000000
B        7.34116365      21.22338693       3.49997020      -0.00013124      -0.00074663       0.00000000
N        8.75501237      21.53731919       3.49997020       0.00019149       0.00077252       0.00000000
B        9.19005096      22.91874448       3.49997020      -0.00026443      -0.00074768       0.00000000
N        8.21121995      23.98617121       3.49997020       0.00019036       0.00085981       0.00000000
B        8.64625854      25.36759650       3.49997020      -0.00021352      -0.00087255       0.00000000
N       10.06010726      25.68152877       3.49997020       0.00018470       0.00076726       0.00000000
B       10.49514585      27.06295406       3.49997020      -0.00017601      -0.00074308       0.00000000
N        9.51631483      28.13038079       3.49997020       0.00024676       0.00088115       0.00000000
B        9.95135342      29.51180609       3.49997020      -0.00015625      -0.00084360       0.00000000
N       11.36520214      29.82573834       3.49997020       0.00016231       0.00081368       0.00000000
B       11.80024073      31.20716364       3.49997020      -0.00022887      -0.00089831       0.00000000
N       10.82140972      32.27459037       3.49997020       0.00025146       0.00115423       0.00000000
B       11.25644831      33.65601566       3.49997020      -0.00027455      -0.00101439       0.00000000
N       12.67029703      33.96994793       3.49997020       0.00015037       0.00060903       0.00000000
B       13.10533562      35.35137322       3.49997020      -0.00015210      -0.00052406       0.00000000
N       12.12650460      36.41879995       3.49997020       0.00028492       0.00083936       0.00000000
B       12.56154319      37.80022525       3.49997020      -0.00025347      -0.00083258       0.00000000
N       13.97539191      38.11415751       3.49997020       0.00014254       0.00067564       0.00000000
B       14.41043050      39.49558279       3.49997020      -0.00021833      -0.00074403       0.00000000
N       13.43159949      40.56300954       3.49997020       0.00029284       0.00071349       0.00000000
B       13.86663808      41.94443483       3.49997020      -0.00014756      -0.00067939       0.00000000
N       15.28048679      42.25836709       3.49997020       0.00018645       0.00107071       0.00000000
B       15.71552538      43.63979238       3.49997020      -0.00029517      -0.00097231       0.00000000
N       14.73669437      44.70721911       3.49997020       0.00014679       0.00156047       0.00000000
B       15.17173296      46.08864440       3.49997020      -0.00051013      -0.00140049       0.00000000
N       16.58558168      46.40257667       3.49997020       0.00022677       0.00186492       0.00000000
B       17.02062027      47.78400196       3.49997020       0.00064201      -0.00218658       0.00000000
N       16.04178925      48.85142869       3.49997020      -0.00152361      -0.00741085       0.00000000
N        4.62221769       0.06277682       3.49997020      -0.00177947       0.01068083       0.00000000
B        5.05725627       1.44420212       3.49997020       0.00043879       0.00053841       0.00000000
N        4.07842525       2.51162885       3.49997020       0.00045849       0.00054233       0.00000000
B        4.51346384       3.89305414       3.49997020       0.00016927      -0.00033374       0.00000000
N        5.92731257       4.20698640       3.49997020      -0.00032929       0.00018817       0.00000000
B        6.36235115       5.58841169       3.49997020      -0.00018103      -0.00074309       0.00000000
N        5.38352015       6.65583842       3.49997020      -0.00007043       0.00053411       0.00000000
B        5.81855873       8.03726371       3.49997020      -0.00012081      -0.00072966       0.00000000
N        7.23240745       8.35119598       3.49997020       0.00006262       0.00088076       0.00000000
B        7.66744604       9.73262127       3.49997020      -0.00020489      -0.00079249       0.00000000
N        6.68861503      10.80004800       3.49997020      -0.00013623       0.00086764       0.00000000
B        7.12365361      12.18147330       3.49997020      -0.00012998      -0.00089386       0.00000000
N        8.53750234      12.49540556       3.49997020       0.00020179       0.00068658       0.00000000
B        8.97254093      13.87683085       3.49997020      -0.00021881      -0.00077939       0.00000000
N        7.99370991      14.94425759       3.49997020      -0.00009164       0.00074197       0.00000000
B        8.42874850      16.32568288       3.49997020      -0.00014158      -0.00082807       0.00000000
N        9.84259722      16.63961514       3.49997020       0.00028987       0.00084963       0.00000000
B       10.27763581      18.02104043       3.49997020      -0.00015737      -0.00078659       0.00000000
N        9.29880480      19.08846716       3.49997020       0.00022444       0.00078860       0.00000000
B        9.73384339      20.46989246       3.49997020      -0.00022510      -0.00079434       0.00000000
N       11.14769210      20.78382472       3.49997020       0.00014783       0.00084806       0.00000000
B       11.58273069      22.16525002       3.49997020      -0.00019373      -0.00078107       0.00000000
N       10.60389968      23.23267675       3.49997020       0.00019178       0.00078139       0.00000000
B       11.03893827      24.61410204       3.49997020      -0.00014179      -0.00076932       0.00000000
N       12.45278699      24.92803430       3.49997020       0.00016074       0.00077913       0.00000000
B       12.88782558      26.30945959       3.49997020      -0.00022656      -0.00076404       0.00000000
N       11.90899457      27.37688632       3.49997020       0.00023495       0.00084741       0.00000000
B       12.34403315      28.75831161       3.49997020      -0.00021409      -0.00088263       0.00000000
N       13.75788187      29.07224388       3.49997020       0.00014720       0.00084006       0.00000000
B       14.19292046      30.45366917       3.49997020      -0.00016437      -0.00082950       0.00000000
N       13.21408945      31.52109590       3.49997020       0.00023569       0.00108334       0.00000000
B       13.64912804      32.90252120       3.49997020      -0.00011583      -0.00096848       0.00000000
N       15.06297676      33.21645345       3.49997020      -0.00011157       0.00073867       0.00000000
B       15.49801535      34.59787875       3.49997020      -0.00019558      -0.00060617       0.00000000
N       14.51918433      35.66530548       3.49997020       0.00014749       0.00085135       0.00000000
B       14.95422292      37.04673077       3.49997020      -0.00022936      -0.00085729       0.00000000
N       16.36807164      37.36066304       3.49997020       0.00009955       0.00075194       0.00000000
B       16.80311023      38.74208833       3.49997020      -0.00019139      -0.00082120       0.00000000
N       15.82427922      39.80951506       3.49997020       0.00021580       0.00058322       0.00000000
B       16.25931781      41.19094035       3.49997020      -0.00019451      -0.00058154       0.00000000
N       17.67316653      41.50487262       3.49997020       0.00017285       0.00075900       0.00000000
B       18.10820511      42.88629790       3.49997020      -0.00021395      -0.00095911       0.00000000
N       17.12937410      43.95372465       3.49997020       0.00006332       0.00142605       0.00000000
B       17.56441269      45.33514994       3.49997020       0.00001452      -0.00104427       0.00000000
N       18.97826142      45.64908220       3.49997020       0.00014959       0.00162809       0.00000000
B       19.41330000      47.03050749       3.49997020      -0.00032644      -0.00127010       0.00000000
N       18.43446899      48.09793422       3.49997020       0.00032900      -0.00106684       0.00000000
B       18.86950757      49.47935951       3.49997020       0.00170518      -0.00616522       0.00000000
N       20.28335630      49.79329178       3.49997020       0.00024707      -0.00698356       0.00000000
B        7.44993601       0.69070764       3.49997020      -0.00000120       0.00569791       0.00000000
N        6.47110499       1.75813437       3.49997020      -0.00076853       0.00234292       0.00000000
B        6.90614357       3.13955967       3.49997020      -0.00040229      -0.00041606       0.00000000
N        8.31999230       3.45349193       3.49997020       0.00067713       0.00004403       0.00000000
B        8.75503089       4.83491723       3.49997020      -0.00012864      -0.00055400       0.00000000
N        7.77619988       5.90234396       3.49997020       0.00010626       0.00009178       0.00000000
B        8.21123847       7.28376925       3.49997020      -0.00021279      -0.00065061       0.00000000
N        9.62508718       7.59770151       3.49997020       0.00025065       0.00073827       0.00000000
B       10.06012577       8.97912680       3.49997020      -0.00022860      -0.00080950       0.00000000
N        9.08129476      10.04655353       3.49997020       0.00019590       0.00077390       0.00000000
B        9.51633335      11.42797882       3.49997020      -0.00024111      -0.00077377       0.00000000
N       10.93018207      11.74191109       3.49997020       0.00007368       0.00093952       0.00000000
B       11.36522066      13.12333638       3.49997020      -0.00024909      -0.00082417       0.00000000
N       10.38638964      14.19076311       3.49997020       0.00027617       0.00069131       0.00000000
B       10.82142823      15.57218841       3.49997020      -0.00025267      -0.00075309       0.00000000
N       12.23527695      15.88612066       3.49997020       0.00028469       0.00071948       0.00000000
B       12.67031554      17.26754596       3.49997020      -0.00017872      -0.00077365       0.00000000
N       11.69148453      18.33497270       3.49997020       0.00009187       0.00074542       0.00000000
B       12.12652312      19.71639799       3.49997020      -0.00023020      -0.00081745       0.00000000
N       13.54037184      20.03033025       3.49997020       0.00037664       0.00077706       0.00000000
B       13.97541043      21.41175554       3.49997020      -0.00021060      -0.00071558       0.00000000
N       12.99657941      22.47918227       3.49997020       0.00024076       0.00067600       0.00000000
B       13.43161800      23.86060756       3.49997020      -0.00018291      -0.00069785       0.00000000
N       14.84546672      24.17453983       3.49997020       0.00015403       0.00076911       0.00000000
B       15.28050531      25.55596512       3.49997020      -0.00025464      -0.00071096       0.00000000
N       14.30167430      26.62339186       3.49997020       0.00027309       0.00074556       0.00000000
B       14.73671289      28.00481715       3.49997020      -0.00018456      -0.00087015       0.00000000
N       16.15056160      28.31874941       3.49997020       0.00022443       0.00079108       0.00000000
B       16.58560019      29.70017470       3.49997020      -0.00016432      -0.00086976       0.00000000
N       15.60676918      30.76760143       3.49997020       0.00010323       0.00076537       0.00000000
B       16.04180777      32.14902672       3.49997020      -0.00013975      -0.00079807       0.00000000
N       17.45565650      32.46295899       3.49997020       0.00036429       0.00069798       0.00000000
B       17.89069508      33.84438428       3.49997020      -0.00024866      -0.00068838       0.00000000
N       16.91186406      34.91181101       3.49997020       0.00031277       0.00070026       0.00000000
B       17.34690265      36.29323631       3.49997020      -0.00027622      -0.00078596       0.00000000
N       18.76075138      36.60716856       3.49997020       0.00019678       0.00070849       0.00000000
B       19.19578996      37.98859386       3.49997020      -0.00014261      -0.00087221       0.00000000
N       18.21695896      39.05602059       3.49997020       0.00015533       0.00106346       0.00000000
B       18.65199754      40.43744588       3.49997020      -0.00021083      -0.00093331       0.00000000
N       20.06584626      40.75137815       3.49997020       0.00021090       0.00087780       0.00000000