604
Lattice="30.8245389230839 0.0 0.0 0.0 53.38967051867715 0.0 0.0 0.0 100.0" Properties=species:S:1:pos:R:3:forces:R:3 energy=-116758.29495239258 stress="-3.5677196752459395e-09 -2.3081683231396255e-09 -0.0 -2.3081683231396255e-09 -3.2877043310008958e-09 -0.0 -0.0 -0.0 -0.0" free_energy=-116758.29495239258 pbc="T T T"
B        0.33182459      52.49117149       3.49997020       0.00001346      -0.00032744       0.00000000
N        0.12768331      44.83040115       3.49997020      -0.00002706      -0.00001629       0.00000000
B        1.14836402      47.54113674       3.49997020       0.00011197      -0.00006720       0.00000000
N        1.65870622      48.89649911       3.49997020       0.00005457       0.00037225       0.00000000
B        0.74009400      50.01615063       3.49997020       0.00004532      -0.00024156       0.00000000
N        1.25043652      51.37151397       3.49997020       0.00009083       0.00027783       0.00000000
B        2.67939026      51.60723422       3.49997020      -0.00016352      -0.00015300       0.00000000
N        3.18973179      52.96259713       3.49997020      -0.00002927       0.00023748       0.00000000
B        0.43388737      38.52500328       3.49997020       0.00005862      -0.00009109       0.00000000
N        0.94422659      39.88037146       3.49997020       0.00010468       0.00001169       0.00000000
B        0.02561521      41.00001885       3.49997020      -0.00004290      -0.00021833       0.00000000
N        0.53595514      42.35538591       3.49997020       0.00000103      -0.00003396       0.00000000
B        1.96490767      42.59110130       3.49997020       0.00008056      -0.00013554       0.00000000
N        2.47524746      43.94646973       3.49997020       0.00006193       0.00004345       0.00000000
B        1.55663459      45.06611773       3.49997020       0.00010145       0.00026506       0.00000000
N        2.06697774      46.42148456       3.49997020      -0.00010991      -0.00032202       0.00000000
B        3.49592971      46.65720026       3.49997020      -0.00003452      -0.00000110       0.00000000
N        4.00627063      48.01256605       3.49997020       0.00005271       0.00036966       0.00000000
B        3.08765844      49.13221943       3.49997020      -0.00000981      -0.00051235       0.00000000
N        3.59800201      50.48757924       3.49997020       0.00002242       0.00027848       0.00000000
B        5.02695364      50.72329987       3.49997020       0.00010235      -0.00038581       0.00000000
N        5.53729646      52.07866442       3.49997020      -0.00009666      -0.00001877       0.00000000
B        4.61868375      53.19831414       3.49997020       0.00006870       0.00023029       0.00000000
N        0.22975650      30.86422988       3.49997020       0.00013517       0.00012843       0.00000000
B        1.25043616      33.57496454       3.49997020       0.00002140      -0.00004657       0.00000000
N        1.76077426      34.93033469       3.49997020       0.00016092      -0.00013109       0.00000000
B        0.84216116      36.04998366       3.49997020       0.00011821       0.00024323       0.00000000
N        1.35250175      37.40535093       3.49997020      -0.00004589      -0.00009320       0.00000000
B        2.78145449      37.64106722       3.49997020      -0.00018232      -0.00002693       0.00000000
N        3.29179250      38.99643589       3.49997020       0.00011709       0.00006302       0.00000000
B        2.37318008      40.11608501       3.49997020      -0.00009328       0.00015639       0.00000000
N        2.88351974      41.47145012       3.49997020       0.00001538      -0.00004471       0.00000000
B        4.31247271      41.70716858       3.49997020      -0.00014940      -0.00013739       0.00000000
N        4.82281280      43.06253625       3.49997020      -0.00002453      -0.00015215       0.00000000
B        3.90420203      44.18218650       3.49997020      -0.00016803       0.00013743       0.00000000
N        4.41454190      45.53754964       3.49997020       0.00000962      -0.00001612       0.00000000
B        5.84349380      45.77326498       3.49997020      -0.00001610       0.00005878       0.00000000
N        6.35383512      47.12863355       3.49997020       0.00004956      -0.00002195       0.00000000
B        5.43522474      48.24828587       3.49997020      -0.00015518      -0.00024114       0.00000000
N        5.94556519      49.60364640       3.49997020      -0.00007133       0.00048819       0.00000000
B        7.37451745      49.83936356       3.49997020      -0.00000977      -0.00009368       0.00000000
N        7.88486028      51.19472808       3.49997020      -0.00010380      -0.00008845       0.00000000
B        6.96624766      52.31438144       3.49997020       0.00016056       0.00014721       0.00000000
B        0.53596715      24.55881777       3.49997020       0.00001137      -0.00004986       0.00000000
N        1.04630601      25.91418449       3.49997020      -0.00010183       0.00031974       0.00000000
B        0.12769297      27.03383935       3.49997020      -0.00006494      -0.00022325       0.00000000
N        0.63803125      28.38920717       3.49997020       0.00021018      -0.00021815       0.00000000
B        2.06698418      28.62492284       3.49997020       0.00011304       0.00005902       0.00000000
N        2.57732349      29.98029381       3.49997020      -0.00000456      -0.00006273       0.00000000
B        1.65870949      31.09994634       3.49997020      -0.00003671      -0.00020301       0.00000000
N        2.16904922      32.45531557       3.49997020       0.00001734       0.00008893       0.00000000
B        3.59800217      32.69103041       3.49997020       0.00006059       0.00022902       0.00000000
N        4.10834104      34.04639771       3.49997020       0.00002524      -0.00017710       0.00000000
B        3.18972769      35.16605261       3.49997020      -0.00001400       0.00001627       0.00000000
N        3.70006651      36.52141999       3.49997020       0.00005615      -0.00026233       0.00000000
B        5.12901880      36.75713198       3.49997020       0.00000339       0.00013924       0.00000000
N        5.63935756      38.11250000       3.49997020       0.00009498       0.00004466       0.00000000
B        4.72074555      39.23215478       3.49997020       0.00004902      -0.00015075       0.00000000
N        5.23108539      40.58751582       3.49997020      -0.00001035       0.00000976       0.00000000
B        6.66003709      40.82323351       3.49997020       0.00004446       0.00004433       0.00000000
N        7.17037785      42.17860010       3.49997020      -0.00001898      -0.00007725       0.00000000
B        6.25176477      43.29825085       3.49997020       0.00014211       0.00015827       0.00000000
N        6.76210565      44.65361758       3.49997020      -0.00002451      -0.00017388       0.00000000
B        8.19105850      44.88933290       3.49997020      -0.00006596      -0.00000516       0.00000000
N        8.70140035      46.24469784       3.49997020       0.00007557      -0.00005768       0.00000000
B        7.78278953      47.36435022       3.49997020      -0.00017913       0.00006841       0.00000000
N        8.29312887      48.71971597       3.49997020       0.00006901       0.00007366       0.00000000
B        9.72208178      48.95542944       3.49997020      -0.00012525       0.00020281       0.00000000
N       10.23242302      50.31079564       3.49997020       0.00004448      -0.00019799       0.00000000
B        9.31381244      51.43044349       3.49997020      -0.00001072       0.00008025       0.00000000
N        9.82415447      52.78581238       3.49997020      -0.00007163       0.00004673       0.00000000
B       11.25310732      53.02152795       3.49997020      -0.00005331       0.00016483       0.00000000
N        0.33183639      16.89804404       3.49997020      -0.00002538      -0.00009993       0.00000000
B        1.35251513      19.60877777       3.49997020       0.00012771      -0.00022046       0.00000000
N        1.86285395      20.96414446       3.49997020       0.00006503       0.00028621       0.00000000
B        0.94424011      22.08379672       3.49997020       0.00009715      -0.00002510       0.00000000
N        1.45458002      23.43916454       3.49997020       0.00008189      -0.00008356       0.00000000
B        2.88353240      23.67488169       3.49997020      -0.00001241       0.00012182       0.00000000
N        3.39387130      25.03024976       3.49997020       0.00015183      -0.00006939       0.00000000
B        2.47525860      26.14990312       3.49997020       0.00004880      -0.00015431       0.00000000
N        2.98559738      27.50527064       3.49997020      -0.00003956       0.00024826       0.00000000
B        4.41455063      27.74099020       3.49997020      -0.00001717      -0.00000318       0.00000000
N        4.92489040      29.09635957       3.49997020      -0.00001262       0.00005404       0.00000000
B        4.00627754      30.21601058       3.49997020       0.00000020      -0.00009914       0.00000000
N        4.51661595      31.57137997       3.49997020      -0.00000649      -0.00009517       0.00000000
B        5.94556877      31.80709658       3.49997020       0.00000026      -0.00009033       0.00000000
N        6.45590677      33.16246216       3.49997020      -0.00004881       0.00020694       0.00000000
B        5.53729379      34.28211659       3.49997020      -0.00003218      -0.00004859       0.00000000
N        6.04763168      35.63748370       3.49997020      -0.00000160      -0.00030976       0.00000000
B        7.47658436      35.87320109       3.49997020      -0.00002741       0.00010137       0.00000000
N        7.98692245      37.22856237       3.49997020       0.00006127       0.00013589       0.00000000
B        7.06831129      38.34821865       3.49997020      -0.00011221      -0.00005645       0.00000000
N        7.57864953      39.70358530       3.49997020       0.00000483      -0.00027785       0.00000000
B        9.00760127      39.93929876       3.49997020       0.00005659       0.00012731       0.00000000
N        9.51794198      41.29466491       3.49997020       0.00006747      -0.00021316       0.00000000
B        8.59932960      42.41431767       3.49997020      -0.00001824      -0.00001594       0.00000000
N        9.10966921      43.76968350       3.49997020       0.00001744       0.00002146       0.00000000
B       10.53862152      44.00539912       3.49997020      -0.00004519       0.00022152       0.00000000
N       11.04896271      45.36076301       3.49997020       0.00001992      -0.00015708       0.00000000
B       10.13035185      46.48041626       3.49997020       0.00001941      -0.00019825       0.00000000
N       10.64069290      47.83578199       3.49997020       0.00008423       0.00004600       0.00000000
B       12.06964544      48.07149537       3.49997020       0.00017237       0.00016886       0.00000000
N       12.57998707      49.42686285       3.49997020      -0.00014094      -0.00034035       0.00000000
B       11.66137561      50.54650822       3.49997020      -0.00007358       0.00011989       0.00000000
N       12.17171675      51.90187739       3.49997020      -0.00000352      -0.00006542       0.00000000
B       13.60066955      52.13759325       3.49997020      -0.00003283       0.00016590       0.00000000
B        0.63803966      10.59264094       3.49997020       0.00003133       0.00006124       0.00000000
N        1.14838045      11.94800884       3.49997020      -0.00000315       0.00010041       0.00000000
B        0.22976756      13.06765957       3.49997020       0.00011630      -0.00005497       0.00000000
N        0.74010935      14.42302591       3.49997020      -0.00001848       0.00000529       0.00000000
B        2.16906153      14.65874227       3.49997020       0.00010098      -0.00008192       0.00000000
N        2.67940233      16.01410850       3.49997020       0.00001572       0.00002366       0.00000000
B        1.76078942      17.13375881       3.49997020       0.00003632       0.00020722       0.00000000
N        2.27112856      18.48912702       3.49997020      -0.00002133       0.00014622       0.00000000
B        3.70008181      18.72484317       3.49997020      -0.00014472      -0.00011281       0.00000000
N        4.21041936      20.08020940       3.49997020       0.00008528       0.00012315       0.00000000
B        3.29180819      21.19986134       3.49997020      -0.00005019      -0.00005787       0.00000000
N        3.80214565      22.55523005       3.49997020       0.00004786       0.00002317       0.00000000
B        5.23109966      22.79094565       3.49997020       0.00002246       0.00002497       0.00000000
N        5.74143792      24.14631392       3.49997020       0.00002091      -0.00000994       0.00000000
B        4.82282544      25.26596781       3.49997020      -0.00009214      -0.00005554       0.00000000
N        5.33316497      26.62133682       3.49997020       0.00004631      -0.00001237       0.00000000
B        6.76211844      26.85705428       3.49997020       0.00005873       0.00011506       0.00000000
N        7.27245822      28.21242260       3.49997020      -0.00020342      -0.00015809       0.00000000
B        6.35384317      29.33207506       3.49997020       0.00001925       0.00004097       0.00000000
N        6.86418165      30.68744582       3.49997020      -0.00005324      -0.00012181       0.00000000
B        8.29313513      30.92316062       3.49997020      -0.00005444      -0.00010457       0.00000000
N        8.80347230      32.27852742       3.49997020      -0.00011391       0.00019529       0.00000000
B        7.88486006      33.39817994       3.49997020       0.00000418      -0.00006419       0.00000000
N        8.39519705      34.75354633       3.49997020      -0.00005111      -0.00023928       0.00000000
B        9.82415039      34.98926415       3.49997020       0.00006284      -0.00016871       0.00000000
N       10.33448854      36.34462742       3.49997020      -0.00017405       0.00030814       0.00000000
B        9.41587497      37.46428032       3.49997020      -0.00002311      -0.00012036       0.00000000
N        9.92621376      38.81965016       3.49997020       0.00003532       0.00002244       0.00000000
B       11.35516707      39.05536266       3.49997020      -0.00007263      -0.00004093       0.00000000
N       11.86550553      40.41072875       3.49997020       0.00002378       0.00023076       0.00000000
B       10.94689368      41.53037923       3.49997020      -0.00008511      -0.00023013       0.00000000
N       11.45723380      42.88574691       3.49997020       0.00014543      -0.00011747       0.00000000
B       12.88618558      43.12146232       3.49997020      -0.00004624       0.00002270       0.00000000
N       13.39652571      44.47682925       3.49997020       0.00003420      -0.00006139       0.00000000
B       12.47791592      45.59647756       3.49997020      -0.00010123       0.00012928       0.00000000
N       12.98825689      46.95184435       3.49997020      -0.00003270      -0.00007123       0.00000000
B       14.41720754      47.18755809       3.49997020       0.00000564       0.00010911       0.00000000
N       14.92754871      48.54292628       3.49997020      -0.00007153       0.00005373       0.00000000
B       14.00893668      49.66257715       3.49997020       0.00012236      -0.00018118       0.00000000
N       14.51927912      51.01793907       3.49997020       0.00012218       0.00006194       0.00000000
B       15.94823072      51.25365668       3.49997020       0.00000064      -0.00018430       0.00000000
N       16.45857321      52.60902326       3.49997020       0.00005559       0.00002573       0.00000000
N        0.43389698       2.93187705       3.49997020       0.00011426      -0.00010601       0.00000000
N        0.02562778       5.40689337       3.49997020       0.00007808      -0.00010133       0.00000000
B        1.45457989       5.64260871       3.49997020       0.00015207       0.00005824       0.00000000
N        1.96492157       6.99797538       3.49997020       0.00007826      -0.00001617       0.00000000
B        1.04631084       8.11762628       3.49997020      -0.00000903       0.00001887       0.00000000
N        1.55665190       9.47299257       3.49997020       0.00004854      -0.00009796       0.00000000
B        2.98560470       9.70870723       3.49997020      -0.00008438       0.00016062       0.00000000
N        3.49594581      11.06407550       3.49997020       0.00007241      -0.00014924       0.00000000
B        2.57733345      12.18372473       3.49997020      -0.00000648       0.00006798       0.00000000
N        3.08767396      13.53909136       3.49997020      -0.00004718       0.00008685       0.00000000
B        4.51662703      13.77480652       3.49997020      -0.00000886       0.00001730       0.00000000
N        5.02696721      15.13017421       3.49997020       0.00004436       0.00000944       0.00000000
B        4.10835490      16.24982524       3.49997020       0.00003320      -0.00005616       0.00000000
N        4.61869426      17.60519213       3.49997020       0.00002854       0.00009704       0.00000000
B        6.04764829      17.84090612       3.49997020      -0.00006289       0.00004626       0.00000000
N        6.55798691      19.19627492       3.49997020      -0.00002796       0.00000645       0.00000000
B        5.63937394      20.31592603       3.49997020      -0.00002162       0.00010931       0.00000000
N        6.14971304      21.67129504       3.49997020      -0.00008317       0.00008728       0.00000000
B        7.57866532      21.90700953       3.49997020      -0.00003492       0.00001413       0.00000000
N        8.08900547      23.26237726       3.49997020      -0.00012812       0.00015523       0.00000000
B        7.17039196      24.38203113       3.49997020      -0.00000549       0.00001786       0.00000000
N        7.68073192      25.73740141       3.49997020      -0.00017136      -0.00017369       0.00000000
B        9.10968396      25.97311624       3.49997020       0.00002609       0.00001852       0.00000000
N        9.62002084      27.32848627       3.49997020      -0.00009708       0.00003644       0.00000000
B        8.70140925      28.44813856       3.49997020      -0.00002762      -0.00003418       0.00000000
N        9.21174662      29.80350702       3.49997020      -0.00005608       0.00003294       0.00000000
B       10.64069865      30.03922309       3.49997020       0.00002356      -0.00014996       0.00000000
N       11.15103619      31.39459080       3.49997020      -0.00012110      -0.00011983       0.00000000
B       10.23242385      32.51424190       3.49997020       0.00000669       0.00032765       0.00000000
N       10.74276159      33.86961032       3.49997020      -0.00008812      -0.00017044       0.00000000
B       12.17171343      34.10532553       3.49997020      -0.00006099      -0.00003922       0.00000000
N       12.68205131      35.46069301       3.49997020      -0.00006256       0.00012334       0.00000000
B       11.76343958      36.58034489       3.49997020       0.00010723      -0.00022990       0.00000000
N       12.27377868      37.93570968       3.49997020      -0.00003065       0.00001246       0.00000000
B       13.70273070      38.17142392       3.49997020      -0.00000175      -0.00012862       0.00000000
N       14.21306911      39.52679218       3.49997020      -0.00000964       0.00009249       0.00000000
B       13.29445937      40.64644534       3.49997020      -0.00013847      -0.00028956       0.00000000
N       13.80479722      42.00180940       3.49997020      -0.00003315       0.00009308       0.00000000
B       15.23374971      42.23752463       3.49997020       0.00023771      -0.00009298       0.00000000
N       15.74408943      43.59289181       3.49997020      -0.00019102      -0.00010853       0.00000000
B       14.82547689      44.71254246       3.49997020       0.00017848       0.00017041       0.00000000
N       15.33581869      46.06790773       3.49997020      -0.00002521      -0.00021507       0.00000000
B       16.76477050      46.30362148       3.49997020      -0.00000620       0.00002363       0.00000000
N       17.27511256      47.65899062       3.49997020       0.00001728      -0.00003948       0.00000000
B       16.35649989      48.77864329       3.49997020      -0.00009917      -0.00023357       0.00000000
N       16.86684016      50.13400448       3.49997020       0.00006635       0.00043789       0.00000000
B       18.29579267      50.36972281       3.49997020      -0.00004491      -0.00035572       0.00000000
N       18.80613285      51.72508606       3.49997020       0.00008617      -0.00004551       0.00000000
B       17.88752382      52.84473961       3.49997020      -0.00014272       0.00028050       0.00000000
N        0.84216614       0.45686117       3.49997020       0.00010254       0.00002872       0.00000000
B        2.27111917       0.69257687       3.49997020       0.00005550      -0.00003677       0.00000000
N        2.78146174       2.04794322       3.49997020      -0.00005962      -0.00015373       0.00000000
B        1.86285034       3.16759195       3.49997020      -0.00006109       0.00013519       0.00000000
N        2.37319157       4.52295860       3.49997020       0.00001943      -0.00007504       0.00000000
B        3.80214506       4.75867363       3.49997020      -0.00012081       0.00008527       0.00000000
N        4.31248624       6.11404003       3.49997020       0.00001889       0.00002492       0.00000000
B        3.39387494       7.23369186       3.49997020      -0.00008496      -0.00014860       0.00000000
N        3.90421631       8.58905747       3.49997020       0.00002790       0.00001516       0.00000000
B        5.33316900       8.82477351       3.49997020       0.00003173       0.00012438       0.00000000
N        5.84351020      10.18013991       3.49997020       0.00002183      -0.00005906       0.00000000
B        4.92489907      11.29978936       3.49997020      -0.00008077       0.00010803       0.00000000
N        5.43523895      12.65515642       3.49997020       0.00002270       0.00001968       0.00000000
B        6.86419299      12.89087078       3.49997020      -0.00017381       0.00012064       0.00000000
N        7.37453219      14.24623869       3.49997020      -0.00001927       0.00005650       0.00000000
B        6.45592098      15.36589040       3.49997020      -0.00015439      -0.00018513       0.00000000
N        6.96625953      16.72125706       3.49997020      -0.00006559       0.00018121       0.00000000
B        8.39521135      16.95697212       3.49997020       0.00015780       0.00010735       0.00000000
N        8.90555063      18.31233913       3.49997020      -0.00019792       0.00013225       0.00000000
B        7.98693843      19.43199098       3.49997020       0.00011819      -0.00011355       0.00000000
N        8.49727781      20.78735945       3.49997020      -0.00012185       0.00003099       0.00000000
B        9.92622992      21.02307556       3.49997020       0.00002173      -0.00019170       0.00000000
N       10.43656775      22.37844233       3.49997020      -0.00002475       0.00013803       0.00000000
B        9.51795658      23.49809479       3.49997020      -0.00005750       0.00004737       0.00000000
N       10.02829511      24.85346364       3.49997020      -0.00014932      -0.00003590       0.00000000
B       11.45724682      25.08917921       3.49997020      -0.00005787       0.00017766       0.00000000
N       11.96758378      26.44454838       3.49997020      -0.00011673      -0.00008329       0.00000000
B       11.04897356      27.56420248       3.49997020       0.00003072      -0.00001441       0.00000000
N       11.55931027      28.91957040       3.49997020      -0.00018348       0.00001276       0.00000000
B       12.98826107      29.15528352       3.49997020       0.00003433      -0.00005182       0.00000000
N       13.49859738      30.51065276       3.49997020      -0.00001032       0.00004623       0.00000000
B       12.57998640      31.63030460       3.49997020       0.00009333      -0.00006433       0.00000000
N       13.09032588      32.98567110       3.49997020      -0.00008311       0.00015194       0.00000000
B       14.51927752      33.22138752       3.49997020      -0.00008425       0.00021962       0.00000000
N       15.02961387      34.57675301       3.49997020       0.00005607       0.00002229       0.00000000
B       14.11100276      35.69640638       3.49997020      -0.00005217      -0.00021002       0.00000000
N       14.62134192      37.05177479       3.49997020       0.00004172       0.00023569       0.00000000
B       16.05029274      37.28748967       3.49997020      -0.00005234      -0.00033975       0.00000000
N       16.56063269      38.64285409       3.49997020      -0.00022402       0.00014228       0.00000000
B       15.64202209      39.76250819       3.49997020       0.00003394       0.00010487       0.00000000
N       16.15236069      41.11787511       3.49997020      -0.00010258       0.00007172       0.00000000
B       17.58131197      41.35358724       3.49997020       0.00003520       0.00019267       0.00000000
N       18.09165085      42.70895460       3.49997020      -0.00002080      -0.00004567       0.00000000
B       17.17303980      43.82860662       3.49997020       0.00001737      -0.00003268       0.00000000
N       17.68338032      45.18397377       3.49997020       0.00010618       0.00009547       0.00000000
B       19.11233297      45.41969116       3.49997020      -0.00006950      -0.00048551       0.00000000
N       19.62267123      46.77505211       3.49997020       0.00026790       0.00021938       0.00000000
B       18.70406251      47.89470539       3.49997020      -0.00018096       0.00013281       0.00000000
N       19.21440265      49.25007061       3.49997020       0.00013685       0.00011643       0.00000000
B       20.64335454      49.48578841       3.49997020      -0.00002638       0.00000377       0.00000000
N       21.15369720      50.84115221       3.49997020      -0.00013738      -0.00018644       0.00000000
B       20.23508574      51.96080203       3.49997020       0.00004002       0.00012705       0.00000000
N       20.74542788      53.31617066       3.49997020      -0.00007324       0.00010422       0.00000000
N        5.12902643       1.16400806       3.49997020      -0.00012861      -0.00014221       0.00000000
B        4.21041387       2.28365839       3.49997020       0.00008617      -0.00006535       0.00000000
N        4.72075578       3.63902408       3.49997020       0.00001247      -0.00002335       0.00000000
B        6.14970963       3.87473934       3.49997020       0.00006819       0.00003314       0.00000000
N        6.66005063       5.23010579       3.49997020      -0.00004618       0.00000540       0.00000000
B        5.74143951       6.34975617       3.49997020      -0.00007030      -0.00009597       0.00000000
N        6.25178033       7.70512234       3.49997020      -0.00002926      -0.00001566       0.00000000
B        7.68073366       7.94083711       3.49997020       0.00011055       0.00008322       0.00000000
N        8.19107488       9.29620439       3.49997020      -0.00005937      -0.00006079       0.00000000
B        7.27246335      10.41585547       3.49997020      -0.00006495      -0.00012106       0.00000000
N        7.78280320      11.77122114       3.49997020       0.00002081      -0.00002609       0.00000000
B        9.21175558      12.00693591       3.49997020       0.00008416      -0.00000520       0.00000000
N        9.72209633      13.36230348       3.49997020      -0.00006063       0.00000462       0.00000000
B        8.80348468      14.48195420       3.49997020      -0.00001694       0.00005780       0.00000000
N        9.31382397      15.83732178       3.49997020      -0.00000810      -0.00005849       0.00000000
B       10.74277563      16.07303582       3.49997020      -0.00002477       0.00006951       0.00000000
N       11.25311387      17.42840565       3.49997020       0.00002019      -0.00011081       0.00000000
B       10.33450287      18.54805502       3.49997020      -0.00006067       0.00005003       0.00000000
N       10.84484094      19.90342196       3.49997020      -0.00007319       0.00015697       0.00000000
B       12.27379303      20.13913866       3.49997020      -0.00005677       0.00007065       0.00000000
N       12.78413050      21.49450807       3.49997020      -0.00005262       0.00007150       0.00000000
B       11.86551886      22.61415943       3.49997020       0.00004431      -0.00007565       0.00000000
N       12.37585634      23.96952767       3.49997020      -0.00010605      -0.00010770       0.00000000
B       13.80480736      24.20524382       3.49997020       0.00012470       0.00005017       0.00000000
N       14.31514479      25.56061312       3.49997020       0.00000320      -0.00019017       0.00000000
B       13.39653527      26.68026507       3.49997020      -0.00008165       0.00004970       0.00000000
N       13.90687186      28.03563194       3.49997020       0.00001512       0.00013734       0.00000000
B       15.33582301      28.27134575       3.49997020      -0.00012470       0.00014594       0.00000000
N       15.84616036      29.62671616       3.49997020       0.00010440      -0.00002891       0.00000000
B       14.92754991      30.74636772       3.49997020      -0.00010510      -0.00020461       0.00000000
N       15.43788693      32.10173599       3.49997020       0.00008387      -0.00000291       0.00000000
B       16.86683940      32.33745075       3.49997020       0.00002586      -0.00030483       0.00000000