684
Lattice="32.80245035988649 0.0 0.0 0.0 56.81551099960067 0.0 0.0 0.0 100.0" Properties=species:S:1:pos:R:3:forces:R:3 energy=-132222.96464538574 stress="3.990280550425496e-09 -5.433824501466233e-10 -0.0 -5.433824501466233e-10 4.563345701313892e-09 -0.0 -0.0 -0.0 -0.0" free_energy=-132222.96464538574 pbc="T T T"
B        0.57558273      53.41008984       3.49997020       0.00003600       0.00007031       0.00000000
N        1.15106830      54.73910433       3.49997020       0.00015770      -0.00031024       0.00000000
B        0.28784677      55.90198645       3.49997020      -0.00018552       0.00039579       0.00000000
N        0.00009694      45.76826080       3.49997020      -0.00040329       0.00021171       0.00000000
B        1.15105570      48.42629132       3.49997020       0.00011556       0.00003152       0.00000000
N        1.72654044      49.75530805       3.49997020      -0.00003910      -0.00026587       0.00000000
B        0.86331969      50.91818760       3.49997020      -0.00007556       0.00009710       0.00000000
N        1.43880383      52.24720197       3.49997020       0.00016104       0.00011376       0.00000000
B        2.87750860      52.41333016       3.49997020      -0.00007202       0.00009758       0.00000000
N        3.45299450      53.74234285       3.49997020      -0.00027954       0.00010689       0.00000000
B        2.58977247      54.90523173       3.49997020      -0.00002135      -0.00017883       0.00000000
N        3.16525477      56.23424391       3.49997020       0.00008279       0.00000787       0.00000000
B        4.60396113      56.40037287       3.49997020       0.00009998      -0.00000728       0.00000000
B        0.00010084      39.45543518       3.49997020      -0.00003611      -0.00013790       0.00000000
N        0.57557771      40.78444747       3.49997020       0.00017349       0.00017293       0.00000000
N        0.28783807      43.27635817       3.49997020      -0.00000502      -0.00014117       0.00000000
B        1.72653939      43.44248541       3.49997020       0.00005135      -0.00005262       0.00000000
N        2.30201828      44.77149944       3.49997020       0.00011223      -0.00019860       0.00000000
B        1.43879669      45.93439117       3.49997020       0.00015073      -0.00003974       0.00000000
N        2.01428220      47.26340159       3.49997020      -0.00031808       0.00025612       0.00000000
B        3.45298139      47.42953133       3.49997020       0.00008692      -0.00007317       0.00000000
N        4.02846520      48.75854688       3.49997020       0.00017096      -0.00000099       0.00000000
B        3.16524288      49.92143262       3.49997020       0.00008453       0.00009876       0.00000000
N        3.74073013      51.25044555       3.49997020      -0.00016010      -0.00007430       0.00000000
B        5.17943172      51.41657557       3.49997020       0.00004313      -0.00020654       0.00000000
N        5.75491724      52.74558506       3.49997020       0.00025888      -0.00010581       0.00000000
B        4.89169740      53.90847100       3.49997020      -0.00011647       0.00007755       0.00000000
N        5.46718625      55.23748072       3.49997020      -0.00024035       0.00034005       0.00000000
B        6.90588518      55.40361316       3.49997020       0.00010427       0.00000026       0.00000000
N        7.48137248      56.73262700       3.49997020       0.00009343      -0.00016111       0.00000000
B        0.57558247      34.47160632       3.49997020      -0.00000049      -0.00017156       0.00000000
N        1.15105981      35.80062785       3.49997020       0.00007087      -0.00029944       0.00000000
B        0.28784169      36.96352370       3.49997020       0.00007491       0.00013252       0.00000000
N        0.86332077      38.29254147       3.49997020      -0.00001597      -0.00022390       0.00000000
B        2.30202281      38.45867109       3.49997020      -0.00002577      -0.00018910       0.00000000
N        2.87750288      39.78768521       3.49997020       0.00010915       0.00017709       0.00000000
B        2.01428089      40.95058362       3.49997020      -0.00002260      -0.00041028       0.00000000
N        2.58975888      42.27959688       3.49997020       0.00008991       0.00013547       0.00000000
B        4.02846351      42.44572557       3.49997020      -0.00002720       0.00032800       0.00000000
N        4.60394366      43.77474438       3.49997020       0.00014370      -0.00043117       0.00000000
B        3.74072394      44.93763234       3.49997020      -0.00008953       0.00000802       0.00000000
N        4.31620313      46.26664790       3.49997020       0.00015157       0.00002956       0.00000000
B        5.75490840      46.43277288       3.49997020      -0.00007321       0.00021433       0.00000000
N        6.33038977      47.76179108       3.49997020       0.00001687      -0.00018092       0.00000000
B        5.46716879      48.92467757       3.49997020       0.00001060       0.00000428       0.00000000
N        6.04265347      50.25368871       3.49997020      -0.00000127      -0.00001613       0.00000000
B        7.48135834      50.41981666       3.49997020      -0.00002468       0.00013427       0.00000000
N        8.05684208      51.74883337       3.49997020      -0.00000869      -0.00030754       0.00000000
B        7.19362069      52.91171063       3.49997020       0.00000691       0.00012595       0.00000000
N        7.76910972      54.24072778       3.49997020      -0.00012268       0.00000237       0.00000000
B        9.20781181      54.40685714       3.49997020      -0.00005101      -0.00013539       0.00000000
N        9.78329632      55.73586633       3.49997020       0.00008990       0.00023732       0.00000000
N        0.00010726      26.82970619       3.49997020      -0.00001066       0.00018072       0.00000000
B        1.15106727      29.48776179       3.49997020       0.00000422       0.00006024       0.00000000
N        1.72654231      30.81678788       3.49997020       0.00007745      -0.00014215       0.00000000
B        0.86332440      31.97968290       3.49997020       0.00003529       0.00000782       0.00000000
N        1.43880181      33.30871271       3.49997020      -0.00003411       0.00009162       0.00000000
B        2.87750509      33.47483812       3.49997020      -0.00002370      -0.00001223       0.00000000
N        3.45298072      34.80386228       3.49997020       0.00007878      -0.00029989       0.00000000
B        2.58976189      35.96675632       3.49997020       0.00004970       0.00035989       0.00000000
N        3.16524190      37.29577911       3.49997020       0.00002312      -0.00014466       0.00000000
B        4.60394304      37.46191482       3.49997020      -0.00015436      -0.00016903       0.00000000
N        5.17942381      38.79092692       3.49997020       0.00022239      -0.00006531       0.00000000
B        4.31620695      39.95382078       3.49997020      -0.00028030       0.00012797       0.00000000
N        4.89168676      41.28283577       3.49997020       0.00005669      -0.00022591       0.00000000
B        6.33038989      41.44896646       3.49997020      -0.00001295       0.00005053       0.00000000
N        6.90587386      42.77798213       3.49997020      -0.00020713      -0.00004622       0.00000000
B        6.04264856      43.94087190       3.49997020      -0.00002971       0.00013985       0.00000000
N        6.61813257      45.26989116       3.49997020      -0.00005665      -0.00030572       0.00000000
B        8.05683605      45.43601873       3.49997020      -0.00005233      -0.00028282       0.00000000
N        8.63232093      46.76503068       3.49997020      -0.00005794       0.00015265       0.00000000
B        7.76909579      47.92791356       3.49997020      -0.00001388       0.00028587       0.00000000
N        8.34458155      49.25693012       3.49997020       0.00009904      -0.00023947       0.00000000
B        9.78328509      49.42305923       3.49997020      -0.00008015      -0.00008837       0.00000000
N       10.35877182      50.75206806       3.49997020      -0.00019530       0.00012169       0.00000000
B        9.49554649      51.91495796       3.49997020       0.00011934      -0.00008386       0.00000000
N       10.07102882      53.24397029       3.49997020       0.00031274       0.00000046       0.00000000
B       11.50973685      53.41010135       3.49997020      -0.00011013      -0.00049840       0.00000000
N       12.08522426      54.73911136       3.49997020      -0.00019249       0.00004899       0.00000000
B       11.22200122      55.90199433       3.49997020      -0.00002016       0.00006929       0.00000000
B        0.00011548      20.51684433       3.49997020       0.00012793       0.00002800       0.00000000
N        0.57559368      21.84586624       3.49997020      -0.00011432       0.00005521       0.00000000
N        0.28785110      24.33778531       3.49997020      -0.00013056       0.00004226       0.00000000
B        1.72655237      24.50391860       3.49997020       0.00000486      -0.00016972       0.00000000
N        2.30202853      25.83293898       3.49997020      -0.00002315       0.00010079       0.00000000
B        1.43880923      26.99583754       3.49997020       0.00001559       0.00007588       0.00000000
N        2.01428592      28.32486317       3.49997020      -0.00005122      -0.00007187       0.00000000
B        3.45298837      28.49099389       3.49997020       0.00000799       0.00002314       0.00000000
N        4.02846545      29.82001908       3.49997020       0.00001647       0.00004439       0.00000000
B        3.16524604      30.98291690       3.49997020      -0.00006593      -0.00016466       0.00000000
N        3.74072230      32.31194062       3.49997020       0.00008984       0.00020497       0.00000000
B        5.17942504      32.47806955       3.49997020       0.00003816       0.00015057       0.00000000
N        5.75490356      33.80709976       3.49997020      -0.00014903      -0.00002458       0.00000000
B        4.89168385      34.96999307       3.49997020       0.00008601      -0.00005179       0.00000000
N        5.46716268      36.29901728       3.49997020      -0.00001637      -0.00016427       0.00000000
B        6.90586482      36.46514959       3.49997020       0.00001277      -0.00022422       0.00000000
N        7.48134404      37.79417033       3.49997020      -0.00001739       0.00023036       0.00000000
B        6.61812646      38.95706124       3.49997020      -0.00000559      -0.00021911       0.00000000
N        7.19361037      40.28608055       3.49997020      -0.00010139      -0.00006782       0.00000000
B        8.63230986      40.45221813       3.49997020       0.00017830       0.00008040       0.00000000
N        9.20779706      41.78122976       3.49997020      -0.00013963      -0.00039012       0.00000000
B        8.34457398      42.94411637       3.49997020       0.00001582       0.00012850       0.00000000
N        8.92006040      44.27312781       3.49997020      -0.00000747       0.00022330       0.00000000
B       10.35876210      44.43926097       3.49997020      -0.00007679      -0.00017645       0.00000000
N       10.93424307      45.76827538       3.49997020       0.00006161      -0.00028570       0.00000000
B       10.07102302      46.93115845       3.49997020      -0.00012172       0.00010498       0.00000000
N       10.64650491      48.26017132       3.49997020      -0.00000353       0.00022146       0.00000000
B       12.08520887      48.42629748       3.49997020       0.00004879       0.00026112       0.00000000
N       12.66069507      49.75531213       3.49997020      -0.00004088      -0.00045848       0.00000000
B       11.79747383      50.91819662       3.49997020      -0.00009245       0.00007111       0.00000000
N       12.37295820      52.24720923       3.49997020       0.00005608       0.00038168       0.00000000
B       13.81166139      52.41333233       3.49997020      -0.00019899       0.00008476       0.00000000
N       14.38714290      53.74234791       3.49997020      -0.00004734      -0.00013646       0.00000000
B       13.52392337      54.90523425       3.49997020       0.00013193      -0.00028351       0.00000000
N       14.09940777      56.23424300       3.49997020      -0.00008173       0.00038107       0.00000000
B       15.53811108      56.40036698       3.49997020       0.00002903      -0.00022594       0.00000000
B        0.57560132      15.53302385       3.49997020      -0.00006941      -0.00005489       0.00000000
N        1.15108077      16.86204107       3.49997020       0.00001088       0.00021464       0.00000000
B        0.28785938      18.02493340       3.49997020      -0.00000605       0.00009922       0.00000000
N        0.86333646      19.35395338       3.49997020      -0.00000176      -0.00003359       0.00000000
B        2.30203653      19.52007928       3.49997020       0.00005613       0.00013009       0.00000000
N        2.87751436      20.84910139       3.49997020       0.00009060      -0.00002442       0.00000000
B        2.01429514      22.01199533       3.49997020      -0.00000095       0.00003826       0.00000000
N        2.58977108      23.34101783       3.49997020       0.00002446       0.00013552       0.00000000
B        4.02847400      23.50714746       3.49997020      -0.00004879       0.00019545       0.00000000
N        4.60394899      24.83617489       3.49997020       0.00005617      -0.00000259       0.00000000
B        3.74073001      25.99906953       3.49997020       0.00007317       0.00000540       0.00000000
N        4.31620759      27.32809568       3.49997020       0.00015599       0.00001137       0.00000000
B        5.75491181      27.49422509       3.49997020      -0.00016574       0.00017542       0.00000000
N        6.33038829      28.82325182       3.49997020      -0.00006917      -0.00022875       0.00000000
B        5.46716690      29.98614896       3.49997020       0.00006271       0.00004537       0.00000000
N        6.04264660      31.31517381       3.49997020      -0.00016618      -0.00015532       0.00000000
B        7.48134672      31.48130403       3.49997020       0.00006596      -0.00000972       0.00000000
N        8.05681981      32.81033052       3.49997020       0.00012695       0.00005505       0.00000000
B        7.19360367      33.97323173       3.49997020       0.00008990      -0.00001894       0.00000000
N        7.76908290      35.30225284       3.49997020       0.00001040      -0.00009534       0.00000000
B        9.20778635      35.46838720       3.49997020       0.00008577      -0.00013091       0.00000000
N        9.78326587      36.79740840       3.49997020      -0.00012553      -0.00001412       0.00000000
B        8.92004349      37.96030845       3.49997020       0.00031498      -0.00036716       0.00000000
N        9.49553087      39.28932892       3.49997020      -0.00007693      -0.00012912       0.00000000
B       10.93423219      39.45546185       3.49997020       0.00016091      -0.00013853       0.00000000
N       11.50971891      40.78447653       3.49997020      -0.00003748      -0.00024380       0.00000000
B       10.64649728      41.94736583       3.49997020      -0.00003841      -0.00023768       0.00000000
N       11.22198223      43.27637488       3.49997020       0.00003616       0.00026319       0.00000000
B       12.66068619      43.44250234       3.49997020      -0.00003332       0.00014715       0.00000000
N       13.23617518      44.77151065       3.49997020      -0.00032450       0.00021570       0.00000000
B       12.37294638      45.93440093       3.49997020       0.00015145      -0.00027443       0.00000000
N       12.94843526      47.26340993       3.49997020      -0.00013037       0.00009269       0.00000000
B       14.38713302      47.42953095       3.49997020       0.00018973       0.00004559       0.00000000
N       14.96261740      48.75854619       3.49997020      -0.00000721       0.00012756       0.00000000
B       14.09939597      49.92143599       3.49997020      -0.00000612      -0.00003167       0.00000000
N       14.67488020      51.25044633       3.49997020       0.00019047       0.00009687       0.00000000
B       16.11358218      51.41657578       3.49997020       0.00004785      -0.00033632       0.00000000
N       16.68906803      52.74558275       3.49997020       0.00011568      -0.00013690       0.00000000
B       15.82584874      53.90847107       3.49997020      -0.00012839       0.00019728       0.00000000
N       16.40133323      55.23748568       3.49997020       0.00000735      -0.00007449       0.00000000
B       17.84003519      55.40360714       3.49997020      -0.00005738       0.00001164       0.00000000
N       18.41551828      56.73261779       3.49997020       0.00013956       0.00017742       0.00000000
N        0.00012502       7.89118695       3.49997020      -0.00040131       0.00010656       0.00000000
B        1.15108614      10.54921527       3.49997020      -0.00006174       0.00009902       0.00000000
N        1.72656580      11.87823069       3.49997020       0.00000197      -0.00010812       0.00000000
B        0.86334394      13.04111863       3.49997020      -0.00005734       0.00002333       0.00000000
N        1.43882337      14.37013616       3.49997020       0.00002896      -0.00006494       0.00000000
B        2.87752656      14.53625993       3.49997020      -0.00005824       0.00007520       0.00000000
N        3.45300348      15.86528009       3.49997020       0.00021881       0.00001293       0.00000000
B        2.58978281      17.02816904       3.49997020      -0.00000894       0.00003839       0.00000000
N        3.16525924      18.35718833       3.49997020       0.00005219       0.00010218       0.00000000
B        4.60396096      18.52331234       3.49997020      -0.00008962       0.00019471       0.00000000
N        5.17943758      19.85233632       3.49997020       0.00002251       0.00004210       0.00000000
B        4.31621637      21.01522986       3.49997020      -0.00001263       0.00003767       0.00000000
N        4.89169232      22.34425129       3.49997020       0.00009414      -0.00009250       0.00000000
B        6.33039561      22.51037923       3.49997020       0.00005445       0.00008882       0.00000000
N        6.90587197      23.83940473       3.49997020      -0.00005105      -0.00000843       0.00000000
B        6.04265265      25.00230325       3.49997020      -0.00007581      -0.00015718       0.00000000
N        6.61812770      26.33132906       3.49997020       0.00013015       0.00013571       0.00000000
B        8.05683072      26.49745752       3.49997020       0.00013466      -0.00009911       0.00000000
N        8.63230816      27.82648547       3.49997020      -0.00003927      -0.00018790       0.00000000
B        7.76909034      28.98937977       3.49997020       0.00002906       0.00021676       0.00000000
N        8.34456466      30.31840616       3.49997020       0.00005648      -0.00017411       0.00000000
B        9.78327164      30.48453239       3.49997020      -0.00009344       0.00008016       0.00000000
N       10.35874537      31.81355449       3.49997020       0.00008610       0.00018485       0.00000000
B        9.49552636      32.97645942       3.49997020      -0.00001074      -0.00030429       0.00000000
N       10.07100032      34.30548252       3.49997020       0.00030314       0.00038647       0.00000000
B       11.50970850      34.47161365       3.49997020       0.00004723      -0.00001131       0.00000000
N       12.08518844      35.80064699       3.49997020       0.00020103      -0.00026675       0.00000000
B       11.22196842      36.96354274       3.49997020       0.00015880      -0.00013096       0.00000000
N       11.79745135      38.29256689       3.49997020       0.00012790      -0.00013889       0.00000000
B       13.23615798      38.45870356       3.49997020       0.00015684      -0.00027035       0.00000000
N       13.81164638      39.78772288       3.49997020      -0.00020140      -0.00021009       0.00000000
B       12.94842258      40.95060994       3.49997020       0.00007706      -0.00032743       0.00000000
N       13.52391107      42.27962388       3.49997020      -0.00000097      -0.00026935       0.00000000
B       14.96261115      42.44574740       3.49997020       0.00018106      -0.00026971       0.00000000
N       15.53809727      43.77475449       3.49997020       0.00001849      -0.00016310       0.00000000
B       14.67487228      44.93763715       3.49997020       0.00007413       0.00016923       0.00000000
N       15.25035744      46.26665000       3.49997020      -0.00006069      -0.00008717       0.00000000
B       16.68905962      46.43277058       3.49997020      -0.00022702       0.00012982       0.00000000
N       17.26453961      47.76178113       3.49997020       0.00028180       0.00026427       0.00000000
B       16.40132352      48.92467137       3.49997020      -0.00012926      -0.00018013       0.00000000
N       16.97680274      50.25368584       3.49997020      -0.00004434       0.00034463       0.00000000
B       18.41550538      50.41981305       3.49997020       0.00014282      -0.00000734       0.00000000
N       18.99099185      51.74882796       3.49997020      -0.00015455      -0.00014326       0.00000000
B       18.12776894      52.91170715       3.49997020       0.00006229      -0.00000018       0.00000000
N       18.70325242      54.24072373       3.49997020       0.00006497      -0.00008831       0.00000000
B       20.14195997      54.40685261       3.49997020      -0.00015453      -0.00030504       0.00000000
N       20.71743924      55.73585869       3.49997020       0.00022808       0.00035130       0.00000000
B        0.00011029       1.57837740       3.49997020      -0.00006830      -0.00008037       0.00000000
N        0.57559479       2.90739030       3.49997020       0.00005578      -0.00004550       0.00000000
N        0.28786173       5.39928848       3.49997020      -0.00026222       0.00013298       0.00000000
B        1.72656412       5.56541639       3.49997020      -0.00005874       0.00006383       0.00000000
N        2.30204748       6.89442992       3.49997020       0.00016869       0.00001920       0.00000000
B        1.43882563       8.05731536       3.49997020       0.00002686      -0.00007772       0.00000000
N        2.01430749       9.38632907       3.49997020       0.00013194       0.00018141       0.00000000
B        3.45301045       9.55245644       3.49997020       0.00001494      -0.00002024       0.00000000
N        4.02849377      10.88147023       3.49997020      -0.00012702      -0.00010129       0.00000000
B        3.16527029      12.04435764       3.49997020      -0.00004218       0.00001953       0.00000000
N        3.74074812      13.37337286       3.49997020       0.00013840       0.00009446       0.00000000
B        5.17945207      13.53949793       3.49997020       0.00004329      -0.00002578       0.00000000
N        5.75493163      14.86851601       3.49997020       0.00008897       0.00002932       0.00000000
B        4.89170819      16.03140542       3.49997020      -0.00011472      -0.00003293       0.00000000
N        5.46718404      17.36042345       3.49997020       0.00008045      -0.00000682       0.00000000
B        6.90588625      17.52654403       3.49997020       0.00002523       0.00021244       0.00000000
N        7.48136336      18.85556497       3.49997020      -0.00002041       0.00014089       0.00000000
B        6.61814079      20.01845987       3.49997020       0.00003314       0.00002734       0.00000000
N        7.19361501      21.34748458       3.49997020       0.00006252       0.00002790       0.00000000
B        8.63231720      21.51360897       3.49997020       0.00005720       0.00003437       0.00000000
N        9.20779227      22.84263569       3.49997020       0.00023439      -0.00004806       0.00000000
B        8.34457376      24.00553297       3.49997020       0.00002587      -0.00006389       0.00000000
N        8.92004974      25.33455816       3.49997020      -0.00007366       0.00025376       0.00000000
B       10.35875316      25.50069130       3.49997020       0.00014120       0.00007185       0.00000000
N       10.93423660      26.82971485       3.49997020      -0.00004058      -0.00024713       0.00000000
B       10.07101360      27.99260971       3.49997020       0.00007009       0.00013837       0.00000000
N       10.64649028      29.32163545       3.49997020       0.00007069      -0.00006666       0.00000000
B       12.08519732      29.48775994       3.49997020      -0.00002884      -0.00011583       0.00000000
N       12.66067842      30.81678206       3.49997020       0.00015985       0.00021425       0.00000000
B       11.79745189      31.97968292       3.49997020       0.00005774      -0.00000824       0.00000000
N       12.37293085      33.30871077       3.49997020       0.00021088       0.00017921       0.00000000
B       13.81163975      33.47483639       3.49997020       0.00023449       0.00003688       0.00000000
N       14.38712697      34.80386604       3.49997020      -0.00001175      -0.00002762       0.00000000
B       13.52389729      35.96677162       3.49997020       0.00027780       0.00010835       0.00000000
N       14.09938231      37.29580589       3.49997020       0.00005959      -0.00053355       0.00000000
B       15.53809661      37.46193237       3.49997020       0.00014285      -0.00018996       0.00000000
N       16.11358165      38.79095746       3.49997020       0.00027547      -0.00043328       0.00000000
B       15.25035376      39.95385251       3.49997020       0.00009560      -0.00041888       0.00000000
N       15.82583713      41.28286323       3.49997020       0.00010362       0.00011608       0.00000000
B       17.26454472      41.44898149       3.49997020      -0.00012909       0.00012985       0.00000000
N       17.84002634      42.77799469       3.49997020      -0.00006273      -0.00016882       0.00000000
B       16.97680052      43.94088032       3.49997020      -0.00002229      -0.00027898       0.00000000
N       17.55228049      45.26988724       3.49997020       0.00034233       0.00008086       0.00000000
B       18.99098464      45.43601469       3.49997020       0.00014462      -0.00033009       0.00000000
N       19.56646637      46.76502211       3.49997020      -0.00010389      -0.00001704       0.00000000
B       18.70324609      47.92791113       3.49997020      -0.00006481       0.00006081       0.00000000
N       19.27872831      49.25692012       3.49997020       0.00007352       0.00015204       0.00000000
B       20.71743117      49.42304873       3.49997020       0.00000909      -0.00007566       0.00000000
N       21.29291618      50.75206621       3.49997020      -0.00005253      -0.00035702       0.00000000
B       20.42969243      51.91494880       3.49997020       0.00004875       0.00014373       0.00000000
N       21.00517971      53.24396162       3.49997020      -0.00006231       0.00001950       0.00000000
B       22.44388195      53.41008635       3.49997020      -0.00000005      -0.00001548       0.00000000
N       23.01936416      54.73909961       3.49997020       0.00001584      -0.00015316       0.00000000
B       22.15614437      55.90198581       3.49997020      -0.00005862       0.00016821       0.00000000
N        0.86333327       0.41549208       3.49997020       0.00007921      -0.00013227       0.00000000
B        2.30203606       0.58161804       3.49997020      -0.00012003       0.00009814       0.00000000
N        2.87752351       1.91062992       3.49997020      -0.00002751      -0.00006847       0.00000000
B        2.01429951       3.07351753       3.49997020      -0.00005617       0.00003646       0.00000000
N        2.58978445       4.40253273       3.49997020       0.00022076      -0.00013431       0.00000000
B        4.02848886       4.56865715       3.49997020      -0.00006942      -0.00001070       0.00000000
N        4.60397215       5.89767131       3.49997020       0.00002609      -0.00006776       0.00000000
B        3.74075062       7.06055727       3.49997020      -0.00008721      -0.00001528       0.00000000
N        4.31623322       8.38956909       3.49997020       0.00003168       0.00010399       0.00000000
B        5.75493832       8.55569515       3.49997020      -0.00008089       0.00001462       0.00000000
N        6.33041669       9.88470979       3.49997020       0.00015423      -0.00018161       0.00000000
B        5.46719744      11.04759691       3.49997020      -0.00000750       0.00002373       0.00000000
N        6.04267881      12.37660962       3.49997020      -0.00008237       0.00020031       0.00000000
B        7.48138000      12.54273493       3.49997020       0.00006901       0.00010146       0.00000000
N        8.05686341      13.87174996       3.49997020      -0.00033286       0.00019485       0.00000000
B        7.19363572      15.03463779       3.49997020      -0.00000313      -0.00005428       0.00000000
N        7.76911154      16.36365875       3.49997020       0.00012603      -0.00009319       0.00000000
B        9.20781645      16.52977759       3.49997020       0.00004715      -0.00002626       0.00000000
N        9.78329230      17.85879666       3.49997020      -0.00004886      -0.00010816       0.00000000
B        8.92006528      19.02168628       3.49997020       0.00009344       0.00021207       0.00000000
N        9.49553750      20.35071126       3.49997020       0.00010712       0.00009074       0.00000000
B       10.93424206      20.51683638       3.49997020       0.00013070       0.00005576       0.00000000
N       11.50972138      21.84586232       3.49997020       0.00004296       0.00012517       0.00000000