772
Lattice="34.84924216490586 0.0 0.0 0.0 60.36038551852316 0.0 0.0 0.0 100.0" Properties=species:S:1:pos:R:3:forces:R:3 energy=-149234.134765625 stress="3.2562794682888807e-09 3.802838364208583e-07 -0.0 3.802838364208583e-07 2.4338051018979456e-10 -0.0 -0.0 -0.0 -0.0" free_energy=-149234.134765625 pbc="T T T"
B        0.24821890      59.43555681       3.49997020       0.00679895      -0.00740649       0.00000000
B        0.60935863      54.43155342       3.49997020       0.00782269       0.00117719       0.00000000
N        1.24135372      55.73469946       3.49997020       0.00202662      -0.00074986       0.00000000
B        0.42878876      56.93355511       3.49997020       0.00771310       0.00129195       0.00000000
N        1.06078386      58.23670116       3.49997020       0.00269062      -0.00403781       0.00000000
B        2.50531358      58.34092900       3.49997020      -0.00090157      -0.00076058       0.00000000
N        3.13730868      59.64407504       3.49997020       0.00292844      -0.00965831       0.00000000
B        0.97049835      49.42755002       3.49997020       0.00767165       0.00079686       0.00000000
N        1.60249345      50.73069606       3.49997020       0.00209301      -0.00052145       0.00000000
B        0.78992849      51.92955172       3.49997020       0.00789177       0.00107437       0.00000000
N        1.42192359      53.23269777       3.49997020       0.00227520      -0.00093262       0.00000000
B        2.86645332      53.33692561       3.49997020      -0.00004332       0.00093737       0.00000000
N        3.49844841      54.64007165       3.49997020      -0.00059122      -0.00118823       0.00000000
B        2.68588345      55.83892731       3.49997020      -0.00034043       0.00073462       0.00000000
N        3.31787855      57.14207335       3.49997020      -0.00005052      -0.00056427       0.00000000
B        4.76240827      57.24630119       3.49997020       0.00034340       0.00034101       0.00000000
N        5.39440337      58.54944724       3.49997020       0.00005192      -0.00289650       0.00000000
B        4.58183840      59.74830289       3.49997020      -0.00055776      -0.00705779       0.00000000
N        0.06767822      41.81731709       3.49997020       0.00813141      -0.00200531       0.00000000
B        1.33163808      44.42354663       3.49997020       0.00713289       0.00118605       0.00000000
N        1.96363318      45.72669267       3.49997020       0.00181158      -0.00044244       0.00000000
B        1.15106822      46.92554833       3.49997020       0.00769721       0.00111565       0.00000000
N        1.78306331      48.22869437       3.49997020       0.00202428      -0.00073825       0.00000000
B        3.22759304      48.33292221       3.49997020       0.00000226       0.00091716       0.00000000
N        3.85958814      49.63606826       3.49997020      -0.00068260      -0.00086624       0.00000000
B        3.04702317      50.83492392       3.49997020       0.00002520       0.00062027       0.00000000
N        3.67901827      52.13806996       3.49997020      -0.00081517      -0.00046693       0.00000000
B        5.12354800      52.24229781       3.49997020       0.00041474       0.00064623       0.00000000
N        5.75554309      53.54544385       3.49997020      -0.00088181      -0.00066066       0.00000000
B        4.94297814      54.74429950       3.49997020       0.00033808       0.00097810       0.00000000
N        5.57497324      56.04744554       3.49997020      -0.00055771      -0.00078942       0.00000000
B        7.01950296      56.15167339       3.49997020       0.00018764       0.00089539       0.00000000
N        7.65149806      57.45481943       3.49997020      -0.00044688      -0.00038462       0.00000000
B        6.83893309      58.65367508       3.49997020       0.00004916      -0.00128272       0.00000000
N        7.47092819      59.95682112       3.49997020       0.00259102      -0.00943390       0.00000000
B        8.91545792      60.06104897       3.49997020      -0.00025417      -0.00705424       0.00000000
N        0.42881795      36.81331370       3.49997020       0.00886243      -0.00162228       0.00000000
N        0.24824808      39.31531540       3.49997020       0.00899872      -0.00152610       0.00000000
B        1.69277781      39.41954324       3.49997020       0.00213076       0.00078900       0.00000000
N        2.32477290      40.72268928       3.49997020      -0.00158012      -0.00088004       0.00000000
B        1.51220795      41.92154494       3.49997020       0.00176090       0.00117700       0.00000000
N        2.14420305      43.22469098       3.49997020       0.00061845      -0.00205151       0.00000000
B        3.58873277      43.32891883       3.49997020       0.00070634       0.00092387       0.00000000
N        4.22072787      44.63206487       3.49997020      -0.00095151      -0.00079946       0.00000000
B        3.40816291      45.83092052       3.49997020       0.00018920       0.00082863       0.00000000
N        4.04015800      47.13406656       3.49997020      -0.00083024      -0.00105947       0.00000000
B        5.48468773      47.23829441       3.49997020       0.00040433       0.00087933       0.00000000
N        6.11668283      48.54144045       3.49997020      -0.00104240      -0.00078462       0.00000000
B        5.30411786      49.74029610       3.49997020       0.00037111       0.00091357       0.00000000
N        5.93611296      51.04344215       3.49997020      -0.00104475      -0.00089404       0.00000000
B        7.38064268      51.14767000       3.49997020       0.00035377       0.00092122       0.00000000
N        8.01263778      52.45081604       3.49997020      -0.00079828      -0.00091313       0.00000000
B        7.20007283      53.64967169       3.49997020       0.00039045       0.00052009       0.00000000
N        7.83206792      54.95281774       3.49997020      -0.00053881      -0.00010026       0.00000000
B        9.27659765      55.05704558       3.49997020       0.00030769       0.00055737       0.00000000
N        9.90859275      56.36019162       3.49997020      -0.00013716       0.00006272       0.00000000
B        9.09602778      57.55904728       3.49997020       0.00046513       0.00038035       0.00000000
N        9.72802288      58.86219332       3.49997020       0.00023994      -0.00300464       0.00000000
B       11.17255260      58.96642116       3.49997020      -0.00113746      -0.00086268       0.00000000
N       11.80454770      60.26956721       3.49997020       0.00363415      -0.01367076       0.00000000
B        0.15796258      30.50616426       3.49997020       0.00677424       0.00023995       0.00000000
N        0.78995767      31.80931030       3.49997020       0.00551015      -0.00283420       0.00000000
N        0.60938782      34.31131201       3.49997020       0.00873298      -0.00201962       0.00000000
B        2.05391754      34.41553985       3.49997020       0.00206387       0.00082250       0.00000000
N        2.68591264      35.71868590       3.49997020      -0.00167232      -0.00071635       0.00000000
B        1.87334767      36.91754155       3.49997020       0.00214632       0.00084104       0.00000000
N        2.50534277      38.22068759       3.49997020      -0.00183687      -0.00067189       0.00000000
B        3.94987250      38.32491544       3.49997020       0.00094047       0.00078962       0.00000000
N        4.58186759      39.62806148       3.49997020      -0.00097290      -0.00077141       0.00000000
B        3.76930263      40.82691713       3.49997020       0.00102322       0.00094888       0.00000000
N        4.40129773      42.13006317       3.49997020      -0.00107765      -0.00041577       0.00000000
B        5.84582745      42.23429102       3.49997020       0.00044247       0.00077267       0.00000000
N        6.47782255      43.53743706       3.49997020      -0.00087693      -0.00052916       0.00000000
B        5.66525759      44.73629271       3.49997020       0.00044518       0.00076039       0.00000000
N        6.29725269      46.03943876       3.49997020      -0.00101566      -0.00076102       0.00000000
B        7.74178242      46.14366660       3.49997020       0.00040796       0.00089446       0.00000000
N        8.37377751      47.44681264       3.49997020      -0.00071317      -0.00076754       0.00000000
B        7.56121255      48.64566830       3.49997020       0.00037533       0.00062116       0.00000000
N        8.19320765      49.94881435       3.49997020      -0.00054460      -0.00058017       0.00000000
B        9.63773737      50.05304219       3.49997020       0.00033586       0.00064040       0.00000000
N       10.26973247      51.35618824       3.49997020      -0.00028779      -0.00085127       0.00000000
B        9.45716751      52.55504389       3.49997020       0.00031564       0.00097016       0.00000000
N       10.08916260      53.85818993       3.49997020      -0.00025533      -0.00043315       0.00000000
B       11.53369233      53.96241778       3.49997020       0.00024638       0.00082439       0.00000000
N       12.16568742      55.26556382       3.49997020      -0.00003160      -0.00025347       0.00000000
B       11.35312247      56.46441947       3.49997020      -0.00017577      -0.00007053       0.00000000
N       11.98511757      57.76756551       3.49997020       0.00003361       0.00047203       0.00000000
B       13.42964729      57.87179336       3.49997020       0.00058359      -0.00179935       0.00000000
N       14.06164239      59.17493940       3.49997020       0.00044269      -0.00960735       0.00000000
B        0.51910231      25.50216087       3.49997020       0.00789427       0.00092657       0.00000000
N        1.15109741      26.80530692       3.49997020       0.00200161      -0.00068421       0.00000000
B        0.33853244      28.00416257       3.49997020       0.00787262       0.00089419       0.00000000
N        0.97052754      29.30730861       3.49997020       0.00199588      -0.00069165       0.00000000
B        2.41505726      29.41153646       3.49997020       0.00010619       0.00034707       0.00000000
N        3.04705236      30.71468250       3.49997020      -0.00094558      -0.00067069       0.00000000
B        2.23448740      31.91353815       3.49997020       0.00135439      -0.00016533       0.00000000
N        2.86648249      33.21668419       3.49997020      -0.00137401      -0.00049621       0.00000000
B        4.31101223      33.32091205       3.49997020       0.00095001       0.00082912       0.00000000
N        4.94300732      34.62405809       3.49997020      -0.00089651      -0.00099898       0.00000000
B        4.13044236      35.82291374       3.49997020       0.00093365       0.00086333       0.00000000
N        4.76243746      37.12605978       3.49997020      -0.00084204      -0.00070705       0.00000000
B        6.20696718      37.23028763       3.49997020       0.00029479       0.00070298       0.00000000
N        6.83896228      38.53343367       3.49997020      -0.00033274      -0.00069100       0.00000000
B        6.02639732      39.73228932       3.49997020       0.00037645       0.00081516       0.00000000
N        6.65839242      41.03543537       3.49997020      -0.00062425      -0.00055016       0.00000000
B        8.10292214      41.13966321       3.49997020       0.00032816       0.00075737       0.00000000
N        8.73491724      42.44280925       3.49997020      -0.00027242      -0.00077542       0.00000000
B        7.92235227      43.64166491       3.49997020       0.00034868       0.00072666       0.00000000
N        8.55434737      44.94481095       3.49997020      -0.00051795      -0.00088073       0.00000000
B        9.99887711      45.04903879       3.49997020       0.00036608       0.00083158       0.00000000
N       10.63087219      46.35218484       3.49997020      -0.00019554      -0.00092178       0.00000000
B        9.81830724      47.55104049       3.49997020       0.00032295       0.00076972       0.00000000
N       10.45030234      48.85418653       3.49997020      -0.00023916      -0.00063613       0.00000000
B       11.89483206      48.95841439       3.49997020       0.00026429       0.00080254       0.00000000
N       12.52682716      50.26156043       3.49997020      -0.00029149      -0.00075033       0.00000000
B       11.71426219      51.46041608       3.49997020       0.00037387       0.00070298       0.00000000
N       12.34625729      52.76356212       3.49997020      -0.00026763      -0.00049535       0.00000000
B       13.79078702      52.86778997       3.49997020       0.00037774       0.00060295       0.00000000
N       14.42278211      54.17093601       3.49997020      -0.00012097      -0.00017390       0.00000000
B       13.61021715      55.36979166       3.49997020       0.00024987       0.00076594       0.00000000
N       14.24221225      56.67293771       3.49997020      -0.00048641       0.00009257       0.00000000
B       15.68674198      56.77716555       3.49997020       0.00052003       0.00036962       0.00000000
N       16.31873708      58.08031159       3.49997020       0.00008593      -0.00295583       0.00000000
B       15.50617211      59.27916725       3.49997020       0.00028544      -0.00716191       0.00000000
B        0.88024203      20.49815749       3.49997020       0.00783879       0.00083649       0.00000000
N        1.51223713      21.80130353       3.49997020       0.00194516      -0.00062218       0.00000000
B        0.69967218      23.00015918       3.49997020       0.00786798       0.00096245       0.00000000
N        1.33166727      24.30330522       3.49997020       0.00216651      -0.00059696       0.00000000
B        2.77619700      24.40753307       3.49997020       0.00003480       0.00070925       0.00000000
N        3.40819209      25.71067911       3.49997020      -0.00084553      -0.00110117       0.00000000
B        2.59562713      26.90953476       3.49997020       0.00005141       0.00083467       0.00000000
N        3.22762223      28.21268080       3.49997020      -0.00092559      -0.00080602       0.00000000
B        4.67215195      28.31690865       3.49997020       0.00043504       0.00077843       0.00000000
N        5.30414705      29.62005469       3.49997020      -0.00112381      -0.00082147       0.00000000
B        4.49158209      30.81891034       3.49997020       0.00060171       0.00070417       0.00000000
N        5.12357718      32.12205639       3.49997020      -0.00110231      -0.00099316       0.00000000
B        6.56810691      32.22628423       3.49997020       0.00042354       0.00079431       0.00000000
N        7.20010201      33.52943028       3.49997020      -0.00047896      -0.00060682       0.00000000
B        6.38753705      34.72828594       3.49997020       0.00038010       0.00068461       0.00000000
N        7.01953215      36.03143198       3.49997020      -0.00038549      -0.00081787       0.00000000
B        8.46406187      36.13565982       3.49997020       0.00037318       0.00086416       0.00000000
N        9.09605697      37.43880587       3.49997020      -0.00033851      -0.00075922       0.00000000
B        8.28349201      38.63766152       3.49997020       0.00036670       0.00077749       0.00000000
N        8.91548710      39.94080756       3.49997020      -0.00032817      -0.00073941       0.00000000
B       10.36001683      40.04503541       3.49997020       0.00029724       0.00074961       0.00000000
N       10.99201193      41.34818145       3.49997020      -0.00035618      -0.00077893       0.00000000
B       10.17944696      42.54703710       3.49997020       0.00030522       0.00086258       0.00000000
N       10.81144206      43.85018314       3.49997020      -0.00046171      -0.00080529       0.00000000
B       12.25597178      43.95441099       3.49997020       0.00039480       0.00076255       0.00000000
N       12.88796688      45.25755703       3.49997020      -0.00038671      -0.00072559       0.00000000
B       12.07540193      46.45641268       3.49997020       0.00025632       0.00073681       0.00000000
N       12.70739702      47.75955872       3.49997020      -0.00032871      -0.00082358       0.00000000
B       14.15192675      47.86378657       3.49997020       0.00034571       0.00081562       0.00000000
N       14.78392185      49.16693262       3.49997020      -0.00030002      -0.00067217       0.00000000
B       13.97135688      50.36578828       3.49997020       0.00030614       0.00093721       0.00000000
N       14.60335198      51.66893432       3.49997020      -0.00030391      -0.00086304       0.00000000
B       16.04788170      51.77316216       3.49997020       0.00029158       0.00087511       0.00000000
N       16.67987680      53.07630820       3.49997020      -0.00053492      -0.00052075       0.00000000
B       15.86731184      54.27516386       3.49997020       0.00034813       0.00053143       0.00000000
N       16.49930693      55.57830990       3.49997020      -0.00020305      -0.00004508       0.00000000
B       17.94383666      55.68253775       3.49997020       0.00032493       0.00059481       0.00000000
N       18.57583176      56.98568379       3.49997020      -0.00077366      -0.00014163       0.00000000
B       17.76326680      58.18453944       3.49997020       0.00013646      -0.00098344       0.00000000
N       18.39526190      59.48768548       3.49997020       0.00243011      -0.00977059       0.00000000
B       19.83979163      59.59191333       3.49997020      -0.00027267      -0.00731104       0.00000000
B        1.24138177      15.49415409       3.49997020       0.00789425       0.00097374       0.00000000
N        1.87337686      16.79730013       3.49997020       0.00194195      -0.00058106       0.00000000
B        1.06081190      17.99615579       3.49997020       0.00785227       0.00083724       0.00000000
N        1.69280700      19.29930183       3.49997020       0.00219266      -0.00050642       0.00000000
B        3.13733672      19.40352968       3.49997020       0.00009584       0.00073409       0.00000000
N        3.76933182      20.70667572       3.49997020      -0.00089884      -0.00119278       0.00000000
B        2.95676685      21.90553137       3.49997020       0.00000800       0.00085976       0.00000000
N        3.58876195      23.20867741       3.49997020      -0.00088202      -0.00061105       0.00000000
B        5.03329168      23.31290526       3.49997020       0.00039321       0.00081480       0.00000000
N        5.66528677      24.61605130       3.49997020      -0.00110618      -0.00083438       0.00000000
B        4.85272182      25.81490696       3.49997020       0.00042997       0.00080060       0.00000000
N        5.48471692      27.11805300       3.49997020      -0.00105192      -0.00095249       0.00000000
B        6.92924664      27.22228084       3.49997020       0.00031067       0.00087343       0.00000000
N        7.56124174      28.52542688       3.49997020      -0.00054174      -0.00093101       0.00000000
B        6.74867677      29.72428254       3.49997020       0.00037198       0.00069008       0.00000000
N        7.38067187      31.02742858       3.49997020      -0.00050243      -0.00076415       0.00000000
B        8.82520160      31.13165643       3.49997020       0.00032950       0.00083443       0.00000000
N        9.45719669      32.43480247       3.49997020      -0.00030563      -0.00076976       0.00000000
B        8.64463173      33.63365813       3.49997020       0.00034006       0.00069983       0.00000000
N        9.27662683      34.93680417       3.49997020      -0.00022258      -0.00073757       0.00000000
B       10.72115655      35.04103202       3.49997020       0.00031003       0.00075658       0.00000000
N       11.35315165      36.34417806       3.49997020      -0.00032232      -0.00073975       0.00000000
B       10.54058670      37.54303371       3.49997020       0.00038197       0.00077458       0.00000000
N       11.17258179      38.84617975       3.49997020      -0.00033860      -0.00079022       0.00000000
B       12.61711152      38.95040760       3.49997020       0.00033830       0.00072380       0.00000000
N       13.24910661      40.25355364       3.49997020      -0.00030434      -0.00090447       0.00000000
B       12.43654165      41.45240929       3.49997020       0.00029454       0.00089329       0.00000000
N       13.06853675      42.75555534       3.49997020      -0.00027633      -0.00076494       0.00000000
B       14.51306647      42.85978318       3.49997020       0.00032398       0.00075990       0.00000000
N       15.14506157      44.16292922       3.49997020      -0.00027917      -0.00078420       0.00000000
B       14.33249661      45.36178488       3.49997020       0.00035406       0.00075250       0.00000000
N       14.96449170      46.66493092       3.49997020      -0.00047298      -0.00089975       0.00000000
B       16.40902143      46.76915876       3.49997020       0.00044334       0.00084357       0.00000000
N       17.04101652      48.07230481       3.49997020      -0.00026394      -0.00057801       0.00000000
B       16.22845157      49.27116047       3.49997020       0.00032557       0.00062036       0.00000000
N       16.86044667      50.57430651       3.49997020      -0.00032175      -0.00054211       0.00000000
B       18.30497639      50.67853436       3.49997020       0.00035768       0.00062905       0.00000000
N       18.93697149      51.98168040       3.49997020      -0.00024261      -0.00064588       0.00000000
B       18.12440653      53.18053605       3.49997020       0.00036054       0.00091938       0.00000000
N       18.75640162      54.48368209       3.49997020      -0.00041901      -0.00018967       0.00000000
B       20.20093135      54.58790994       3.49997020       0.00031004       0.00089286       0.00000000
N       20.83292645      55.89105598       3.49997020      -0.00014958      -0.00026411       0.00000000
B       20.02036148      57.08991163       3.49997020       0.00057654       0.00011088       0.00000000
N       20.65235658      58.39305767       3.49997020      -0.00020390      -0.00259891       0.00000000
B       22.09688630      58.49728552       3.49997020       0.00022706      -0.00120173       0.00000000
N       22.72888140      59.80043156       3.49997020       0.00227015      -0.00937018       0.00000000
N        0.33856163       7.88392116       3.49997020       0.00879541      -0.00154273       0.00000000
N        0.15799176      10.38592285       3.49997020       0.00801694      -0.00192493       0.00000000
B        1.60252149      10.49015070       3.49997020       0.00172670       0.00110126       0.00000000
N        2.23451659      11.79329674       3.49997020       0.00063294      -0.00214287       0.00000000
B        1.42195162      12.99215239       3.49997020       0.00730214       0.00137451       0.00000000
N        2.05394672      14.29529843       3.49997020       0.00164742      -0.00048601       0.00000000
B        3.49847644      14.39952628       3.49997020       0.00007035       0.00077800       0.00000000
N        4.13047154      15.70267232       3.49997020      -0.00070245      -0.00087671       0.00000000
B        3.31790659      16.90152798       3.49997020      -0.00001003       0.00084493       0.00000000
N        3.94990168      18.20467403       3.49997020      -0.00104681      -0.00062997       0.00000000
B        5.39443141      18.30890187       3.49997020       0.00044079       0.00067265       0.00000000
N        6.02642651      19.61204791       3.49997020      -0.00103188      -0.00062299       0.00000000
B        5.21386154      20.81090357       3.49997020       0.00045562       0.00074955       0.00000000
N        5.84585664      22.11404961       3.49997020      -0.00106263      -0.00083935       0.00000000
B        7.29038636      22.21827745       3.49997020       0.00032423       0.00084860       0.00000000
N        7.92238146      23.52142350       3.49997020      -0.00052464      -0.00081082       0.00000000
B        7.10981650      24.72027915       3.49997020       0.00036226       0.00071345       0.00000000
N        7.74181160      26.02342519       3.49997020      -0.00049657      -0.00080064       0.00000000
B        9.18634132      26.12765304       3.49997020       0.00034566       0.00081096       0.00000000
N        9.81833642      27.43079908       3.49997020      -0.00036052      -0.00095745       0.00000000
B        9.00577146      28.62965473       3.49997020       0.00034354       0.00083389       0.00000000
N        9.63776656      29.93280077       3.49997020      -0.00036871      -0.00077328       0.00000000
B       11.08229629      30.03702862       3.49997020       0.00028848       0.00070063       0.00000000
N       11.71429138      31.34017466       3.49997020      -0.00021597      -0.00073341       0.00000000
B       10.90172642      32.53903032       3.49997020       0.00026501       0.00066373       0.00000000
N       11.53372152      33.84217637       3.49997020      -0.00022641      -0.00054822       0.00000000
B       12.97825124      33.94640421       3.49997020       0.00029767       0.00079881       0.00000000
N       13.61024634      35.24955025       3.49997020      -0.00034264      -0.00076895       0.00000000
B       12.79768137      36.44840591       3.49997020       0.00033209       0.00077876       0.00000000
N       13.42967647      37.75155195       3.49997020      -0.00031377      -0.00073919       0.00000000
B       14.87420621      37.85577979       3.49997020       0.00031460       0.00068330       0.00000000
N       15.50620129      39.15892584       3.49997020      -0.00034815      -0.00071533       0.00000000
B       14.69363634      40.35778149       3.49997020       0.00036454       0.00082136       0.00000000
N       15.32563144      41.66092753       3.49997020      -0.00026912      -0.00076571       0.00000000
B       16.77016116      41.76515538       3.49997020       0.00027763       0.00076380       0.00000000
N       17.40215626      43.06830142       3.49997020      -0.00031050      -0.00076764       0.00000000
B       16.58959129      44.26715707       3.49997020       0.00024867       0.00082651       0.00000000
N       17.22158639      45.57030311       3.49997020      -0.00042338      -0.00101035       0.00000000
B       18.66611612      45.67453096       3.49997020       0.00040262       0.00083059       0.00000000
N       19.29811121      46.97767700       3.49997020      -0.00025530      -0.00063834       0.00000000
B       18.48554625      48.17653266       3.49997020       0.00028039       0.00073133       0.00000000
N       19.11754135      49.47967870       3.49997020      -0.00042362      -0.00079379       0.00000000
B       20.56207108      49.58390655       3.49997020       0.00033209       0.00088124       0.00000000
N       21.19406617      50.88705259       3.49997020      -0.00036341      -0.00084940       0.00000000
B       20.38150122      52.08590824       3.49997020       0.00025090       0.00071636       0.00000000
N       21.01349631      53.38905429       3.49997020      -0.00042394      -0.00042513       0.00000000
B       22.45802604      53.49328213       3.49997020       0.00032064       0.00060344       0.00000000
N       23.09002113      54.79642817       3.49997020      -0.00024881       0.00001625       0.00000000
B       22.27745617      55.99528383       3.49997020       0.00015231       0.00076072       0.00000000
N       22.90945127      57.29842987       3.49997020      -0.00052307      -0.00037279       0.00000000
B       24.35398099      57.40265771       3.49997020       0.00056043       0.00039106       0.00000000
N       24.98597609      58.70580376       3.49997020       0.00005992      -0.00294741       0.00000000
B       24.17341113      59.90465941       3.49997020      -0.00015793      -0.00709414       0.00000000
B        0.06770626       1.57677173       3.49997020       0.00631635       0.00194859       0.00000000
N        0.69970135       2.87991777       3.49997020       0.00596443      -0.00213679       0.00000000
N        0.51913149       5.38191946       3.49997020       0.00890175      -0.00151052       0.00000000
B        1.96366122       5.48614731       3.49997020       0.00201092       0.00058138       0.00000000
N        2.59565632       6.78929335       3.49997020      -0.00161732      -0.00075509       0.00000000
B        1.78309136       7.98814900       3.49997020       0.00211123       0.00082100       0.00000000
N        2.41508645       9.29129505       3.49997020      -0.00157378      -0.00074992       0.00000000
B        3.85961618       9.39552289       3.49997020       0.00099698       0.00087295       0.00000000
N        4.49161127      10.69866893       3.49997020      -0.00126096      -0.00045648       0.00000000
B        3.67904631      11.89752459       3.49997020       0.00075614       0.00098390       0.00000000
N        4.31104141      13.20067063       3.49997020      -0.00104435      -0.00093990       0.00000000
B        5.75557113      13.30489847       3.49997020       0.00037894       0.00076635       0.00000000
N        6.38756623      14.60804452       3.49997020      -0.00093010      -0.00053106       0.00000000
B        5.57500128      15.80690018       3.49997020       0.00042278       0.00086044       0.00000000
N        6.20699637      17.11004622       3.49997020      -0.00120806      -0.00098803       0.00000000
B        7.65152610      17.21427407       3.49997020       0.00037869       0.00088960       0.00000000
N        8.28352120      18.51742011       3.49997020      -0.00062562      -0.00064141       0.00000000
B        7.47095623      19.71627576       3.49997020       0.00034823       0.00067507       0.00000000