868
Lattice="36.95222085583907 0.0 0.0 0.0 64.00311585324152 0.0 0.0 0.0 100.0" Properties=species:S:1:pos:R:3:forces:R:3 energy=-167791.7477874756 stress="-3.1822427359884387e-08 -4.3098449253875515e-09 -0.0 -4.3098449253875515e-09 2.6346489434558862e-08 -0.0 -0.0 -0.0 -0.0" free_energy=-167791.7477874756 pbc="T T T"
B        0.29808982      60.56237660       3.49997020      -0.00038533      -0.00049636       0.00000000
N        0.97922823      61.84043297       3.49997020       0.00024009      -0.00025986       0.00000000
B        0.21295248      63.06933719       3.49997020       0.00013163       0.00002547       0.00000000
B        0.46837084      55.54835478       3.49997020       0.00005011      -0.00009521       0.00000000
N        1.14950610      56.82644478       3.49997020      -0.00042774      -0.00019498       0.00000000
B        0.38322548      58.05537509       3.49997020       0.00005146      -0.00025595       0.00000000
N        1.06436579      59.33344958       3.49997020      -0.00010452      -0.00011063       0.00000000
B        2.51177550      59.38261923       3.49997020       0.00025050      -0.00045290       0.00000000
N        3.19292416      60.66068376       3.49997020       0.00001774      -0.00011806       0.00000000
B        2.42663617      61.88960421       3.49997020       0.00022224      -0.00020097       0.00000000
N        3.10779783      63.16765661       3.49997020       0.00001306      -0.00001319       0.00000000
B        4.55520566      63.21682038       3.49997020       0.00010448      -0.00005272       0.00000000
B        0.63865855      50.53428084       3.49997020       0.00057390      -0.00054771       0.00000000
N        1.31978975      51.81237307       3.49997020      -0.00007642       0.00035116       0.00000000
B        0.55351460      53.04131837       3.49997020       0.00018754       0.00004984       0.00000000
N        1.23464174      54.31942386       3.49997020       0.00028965      -0.00040609       0.00000000
B        2.68206163      54.36858627       3.49997020       0.00026444      -0.00014903       0.00000000
N        3.36319917      55.64668614       3.49997020       0.00009194      -0.00059129       0.00000000
B        2.59691882      56.87561421       3.49997020       0.00022687      -0.00043307       0.00000000
N        3.27806173      58.15369098       3.49997020       0.00024715       0.00039652       0.00000000
B        4.72547834      58.20286057       3.49997020       0.00041908      -0.00067108       0.00000000
N        5.40663026      59.48093220       3.49997020       0.00012910      -0.00014069       0.00000000
B        4.64034071      60.70984850       3.49997020       0.00016002      -0.00029104       0.00000000
N        5.32149539      61.98791087       3.49997020       0.00042201      -0.00009840       0.00000000
B        6.76892071      62.03707100       3.49997020       0.00030486      -0.00020944       0.00000000
N        7.45009191      63.31513664       3.49997020      -0.00008779      -0.00032443       0.00000000
B        0.80895819      45.52017239       3.49997020      -0.00018927       0.00023965       0.00000000
N        1.49007623      46.79827900       3.49997020       0.00057346      -0.00042628       0.00000000
B        0.72380949      48.02722139       3.49997020       0.00010740       0.00049949       0.00000000
N        1.40493501      49.30533146       3.49997020       0.00007297      -0.00014148       0.00000000
B        2.85235449      49.35449400       3.49997020       0.00002823       0.00035518       0.00000000
N        3.53348544      50.63259984       3.49997020      -0.00010524       0.00001289       0.00000000
B        2.76720494      51.86155224       3.49997020       0.00048242      -0.00084953       0.00000000
N        3.44834471      53.13964526       3.49997020      -0.00025529       0.00044179       0.00000000
B        4.89575961      53.18880664       3.49997020       0.00090685      -0.00040124       0.00000000
N        5.57691079      54.46690598       3.49997020      -0.00026708       0.00015407       0.00000000
B        4.81061543      55.69584505       3.49997020       0.00071955      -0.00055050       0.00000000
N        5.49177015      56.97393192       3.49997020      -0.00030943       0.00019166       0.00000000
B        6.93919600      57.02309334       3.49997020       0.00047556      -0.00062363       0.00000000
N        7.62035023      58.30116899       3.49997020      -0.00007950       0.00021688       0.00000000
B        6.85405322      59.53009758       3.49997020       0.00044582      -0.00081161       0.00000000
N        7.53522105      60.80815287       3.49997020      -0.00028837       0.00033785       0.00000000
B        8.98264551      60.85732032       3.49997020       0.00036121      -0.00028091       0.00000000
N        9.66381279      62.13538177       3.49997020       0.00030115      -0.00014765       0.00000000
B        8.89751717      63.36428909       3.49997020       0.00022234       0.00002378       0.00000000
B        0.97924670      40.50607347       3.49997020       0.00037852      -0.00002667       0.00000000
N        1.66037440      41.78417810       3.49997020      -0.00012788      -0.00023598       0.00000000
B        0.89409988      43.01312600       3.49997020       0.00042584       0.00002251       0.00000000
N        1.57522991      44.29122778       3.49997020      -0.00014234      -0.00016219       0.00000000
B        3.02264280      44.34039207       3.49997020       0.00046833      -0.00007519       0.00000000
N        3.70377607      45.61849291       3.49997020      -0.00020279       0.00025824       0.00000000
B        2.93749716      46.84744151       3.49997020       0.00031031       0.00020867       0.00000000
N        3.61862949      48.12555217       3.49997020      -0.00007527      -0.00067724       0.00000000
B        5.06605744      48.17470439       3.49997020       0.00023158       0.00014305       0.00000000
N        5.74718958      49.45281415       3.49997020       0.00038352      -0.00017632       0.00000000
B        4.98091007      50.68175253       3.49997020       0.00020329       0.00040392       0.00000000
N        5.66204691      51.95986380       3.49997020       0.00010256       0.00003582       0.00000000
B        7.10949711      52.00901677       3.49997020      -0.00062956       0.00001618       0.00000000
N        7.79062512      53.28712900       3.49997020       0.00065792      -0.00015523       0.00000000
B        7.02434644      54.51606410       3.49997020      -0.00009584      -0.00011810       0.00000000
N        7.70548750      55.79416273       3.49997020       0.00022250      -0.00017752       0.00000000
B        9.15293177      55.84331151       3.49997020      -0.00002149       0.00039426       0.00000000
N        9.83408263      57.12140689       3.49997020       0.00017726      -0.00010560       0.00000000
B        9.06778642      58.35033673       3.49997020       0.00020848      -0.00078837       0.00000000
N        9.74894362      59.62840899       3.49997020       0.00042971      -0.00017182       0.00000000
B       11.19638674      59.67756243       3.49997020      -0.00008587      -0.00029863       0.00000000
N       11.87754691      60.95563054       3.49997020       0.00007613       0.00007027       0.00000000
B       11.11125048      62.18454258       3.49997020       0.00012264      -0.00022150       0.00000000
N       11.79242314      63.46260281       3.49997020      -0.00014959      -0.00047143       0.00000000
B       13.23985830      63.51176077       3.49997020       0.00005820      -0.00013375       0.00000000
B        1.14954318      35.49196795       3.49997020      -0.00004148       0.00000534       0.00000000
N        1.83066456      36.77007379       3.49997020       0.00033487      -0.00020030       0.00000000
B        1.06439427      37.99901627       3.49997020      -0.00005332       0.00025605       0.00000000
N        1.74552029      39.27712150       3.49997020      -0.00002991      -0.00000510       0.00000000
B        3.19294090      39.32628960       3.49997020       0.00019372       0.00005880       0.00000000
N        3.87406953      40.60439252       3.49997020      -0.00004200      -0.00007757       0.00000000
B        3.10779045      41.83334002       3.49997020       0.00034171       0.00017255       0.00000000
N        3.78892122      43.11144732       3.49997020      -0.00009668      -0.00025665       0.00000000
B        5.23634804      43.16060041       3.49997020       0.00022128       0.00048227       0.00000000
N        5.91748010      44.43870846       3.49997020       0.00019842      -0.00026592       0.00000000
B        5.15120236      45.66765956       3.49997020       0.00029685      -0.00017955       0.00000000
N        5.83233377      46.94575712       3.49997020       0.00030800      -0.00004151       0.00000000
B        7.27978601      46.99491609       3.49997020      -0.00027475      -0.00026553       0.00000000
N        7.96091391      48.27302509       3.49997020       0.00030595      -0.00022579       0.00000000
B        7.19464083      49.50196408       3.49997020      -0.00051141       0.00027302       0.00000000
N        7.87576711      50.78007936       3.49997020       0.00066698      -0.00008048       0.00000000
B        9.32322891      50.82922567       3.49997020      -0.00039370       0.00000315       0.00000000
N       10.00436778      52.10734032       3.49997020       0.00013253       0.00000857       0.00000000
B        9.23808199      53.33626862       3.49997020      -0.00032257       0.00066198       0.00000000
N        9.91922310      54.61439046       3.49997020       0.00020962      -0.00081917       0.00000000
B       11.36668005      54.66353153       3.49997020      -0.00033214       0.00009532       0.00000000
N       12.04782229      55.94163624       3.49997020       0.00052008      -0.00013851       0.00000000
B       11.28153173      57.17056160       3.49997020      -0.00038560      -0.00028856       0.00000000
N       11.96268528      58.44864736       3.49997020      -0.00003842      -0.00013529       0.00000000
B       13.41012729      58.49780033       3.49997020       0.00012925      -0.00012489       0.00000000
N       14.09128882      59.77587386       3.49997020       0.00007955       0.00002616       0.00000000
B       13.32498714      61.00479181       3.49997020       0.00013271      -0.00032810       0.00000000
N       14.00615828      62.28285599       3.49997020       0.00015105      -0.00037423       0.00000000
B       15.45359580      62.33200910       3.49997020      -0.00001791       0.00001911       0.00000000
N       16.13477121      63.61007121       3.49997020      -0.00030373      -0.00046775       0.00000000
B        1.31983097      30.47786535       3.49997020       0.00012928      -0.00003287       0.00000000
N        2.00095748      31.75596811       3.49997020       0.00017282       0.00045923       0.00000000
B        1.23469071      32.98491949       3.49997020      -0.00000994      -0.00045281       0.00000000
N        1.91581410      34.26301881       3.49997020      -0.00006795       0.00018760       0.00000000
B        3.36322742      34.31218895       3.49997020       0.00066347      -0.00004996       0.00000000
N        4.04436339      35.59028932       3.49997020      -0.00036493      -0.00002308       0.00000000
B        3.27808364      36.81923232       3.49997020       0.00041131       0.00038274       0.00000000
N        3.95921564      38.09734220       3.49997020      -0.00006423      -0.00042489       0.00000000
B        5.40664570      38.14649976       3.49997020       0.00002818       0.00023119       0.00000000
N        6.08777396      39.42460633       3.49997020       0.00038206      -0.00026863       0.00000000
B        5.32149902      40.65355146       3.49997020       0.00005923       0.00005764       0.00000000
N        6.00262771      41.93165741       3.49997020       0.00039354      -0.00014814       0.00000000
B        7.45008244      41.98081370       3.49997020      -0.00041167       0.00037722       0.00000000
N        8.13121157      43.25891877       3.49997020      -0.00000787      -0.00048953       0.00000000
B        7.36493636      44.48786181       3.49997020      -0.00041587       0.00023539       0.00000000
N        8.04606730      45.76596468       3.49997020      -0.00016431       0.00042816       0.00000000
B        9.49352009      45.81512904       3.49997020       0.00004880      -0.00056552       0.00000000
N       10.17466702      47.09322214       3.49997020      -0.00056175       0.00064329       0.00000000
B        9.40837191      48.32217478       3.49997020       0.00013494      -0.00020471       0.00000000
N       10.08952057      49.60028571       3.49997020      -0.00051332       0.00010230       0.00000000
B       11.53696780      49.64943543       3.49997020       0.00037685      -0.00029192       0.00000000
N       12.21812184      50.92754343       3.49997020      -0.00031964       0.00040396       0.00000000
B       11.45182319      52.15648693       3.49997020       0.00024282       0.00014228       0.00000000
N       12.13297306      53.43460086       3.49997020      -0.00026813      -0.00026070       0.00000000
B       13.58042326      53.48374684       3.49997020      -0.00001161      -0.00006783       0.00000000
N       14.26157571      54.76185484       3.49997020      -0.00003322      -0.00004486       0.00000000
B       13.49527560      55.99077784       3.49997020      -0.00008888       0.00051294       0.00000000
N       14.17643103      57.26888561       3.49997020      -0.00007965      -0.00081433       0.00000000
B       15.62387538      57.31803073       3.49997020      -0.00017568      -0.00019410       0.00000000
N       16.30502986      58.59611379       3.49997020       0.00062288      -0.00008645       0.00000000
B       15.53873437      59.82503616       3.49997020      -0.00033384      -0.00041031       0.00000000
N       16.21989460      61.10310214       3.49997020       0.00028190      -0.00007498       0.00000000
B       17.66733453      61.15225549       3.49997020       0.00009520       0.00013991       0.00000000
N       18.34850482      62.43032365       3.49997020      -0.00007653      -0.00062943       0.00000000
B       17.58220562      63.65922707       3.49997020       0.00023690       0.00008755       0.00000000
N        0.12783038      22.90754920       3.49997020       0.00015400      -0.00020154       0.00000000
N        0.04268953      25.41459834       3.49997020      -0.00007435      -0.00004131       0.00000000
B        1.49010321      25.46376249       3.49997020       0.00040201       0.00007851       0.00000000
N        2.17123954      26.74186603       3.49997020      -0.00007059       0.00014002       0.00000000
B        1.40496954      27.97081218       3.49997020       0.00027540       0.00006277       0.00000000
N        2.08610013      29.24891875       3.49997020       0.00027055      -0.00030691       0.00000000
B        3.53352234      29.29808097       3.49997020       0.00025521       0.00001879       0.00000000
N        4.21465128      30.57618778       3.49997020      -0.00001036      -0.00007694       0.00000000
B        3.44837678      31.80513523       3.49997020       0.00028558      -0.00018776       0.00000000
N        4.12950919      33.08323640       3.49997020      -0.00021209      -0.00003351       0.00000000
B        5.57693663      33.13239340       3.49997020       0.00020410       0.00039495       0.00000000
N        6.25806791      34.41050275       3.49997020       0.00025883      -0.00017061       0.00000000
B        5.49178771      35.63945219       3.49997020       0.00034338      -0.00017179       0.00000000
N        6.17292065      36.91755108       3.49997020       0.00026746      -0.00001244       0.00000000
B        7.62037115      36.96671375       3.49997020      -0.00010861      -0.00036306       0.00000000
N        8.30150705      38.24480796       3.49997020      -0.00021673       0.00018712       0.00000000
B        7.53522623      39.47375731       3.49997020      -0.00031081       0.00023690       0.00000000
N        8.21635844      40.75186879       3.49997020      -0.00012431      -0.00037969       0.00000000
B        9.66381022      40.80102326       3.49997020       0.00032141      -0.00000951       0.00000000
N       10.34496136      42.07912522       3.49997020      -0.00052689       0.00007724       0.00000000
B        9.57866618      43.30807165       3.49997020       0.00007365       0.00024787       0.00000000
N       10.25980763      44.58617918       3.49997020      -0.00002634       0.00002063       0.00000000
B       11.70726284      44.63533468       3.49997020      -0.00004495      -0.00010717       0.00000000
N       12.38841675      45.91343910       3.49997020      -0.00018624      -0.00007569       0.00000000
B       11.62211399      47.14238821       3.49997020       0.00025506      -0.00041398       0.00000000
N       12.30326983      48.42048709       3.49997020      -0.00016991       0.00056596       0.00000000
B       13.75071581      48.46964675       3.49997020       0.00008828      -0.00024329       0.00000000
N       14.43186817      49.74775137       3.49997020      -0.00022804       0.00005387       0.00000000
B       13.66556877      50.97669668       3.49997020       0.00018446      -0.00002298       0.00000000
N       14.34672085      52.25480392       3.49997020      -0.00006456       0.00036786       0.00000000
B       15.79416708      52.30395716       3.49997020       0.00020002      -0.00002216       0.00000000
N       16.47532764      53.58206836       3.49997020      -0.00046346       0.00004458       0.00000000
B       15.70902082      54.81100116       3.49997020       0.00032407      -0.00001480       0.00000000
N       16.39017969      56.08910328       3.49997020      -0.00020514       0.00000516       0.00000000
B       17.83761838      56.13825220       3.49997020       0.00024583       0.00001073       0.00000000
N       18.51878074      57.41634492       3.49997020      -0.00033200       0.00027218       0.00000000
B       17.75247398      58.64527568       3.49997020       0.00018267      -0.00063410       0.00000000
N       18.43363636      59.92335000       3.49997020      -0.00001259      -0.00041283       0.00000000
B       19.88107842      59.97250806       3.49997020       0.00007214      -0.00052759       0.00000000
N       20.56224154      61.25057183       3.49997020       0.00006845      -0.00020721       0.00000000
B       19.79594339      62.47948056       3.49997020      -0.00009264      -0.00004332       0.00000000
N       20.47711438      63.75754484       3.49997020       0.00019899      -0.00044636       0.00000000
B       21.92455398      63.80669420       3.49997020      -0.00005756       0.00040622       0.00000000
N        0.29812086      17.89344519       3.49997020       0.00021652       0.00022560       0.00000000
N        0.21297566      20.40049494       3.49997020       0.00013432       0.00007459       0.00000000
B        1.66038437      20.44966390       3.49997020       0.00069702      -0.00002223       0.00000000
N        2.34152075      21.72776593       3.49997020      -0.00030014      -0.00009629       0.00000000
B        1.57524165      22.95671155       3.49997020       0.00060952       0.00025190       0.00000000
N        2.25637822      24.23481959       3.49997020      -0.00015169      -0.00042423       0.00000000
B        3.70379531      24.28397782       3.49997020       0.00052604       0.00001131       0.00000000
N        4.38493574      25.56207878       3.49997020       0.00003136       0.00016247       0.00000000
B        3.61865676      26.79102996       3.49997020       0.00052768      -0.00036256       0.00000000
N        4.29979598      28.06913064       3.49997020       0.00002610       0.00022589       0.00000000
B        5.74722835      28.11829263       3.49997020      -0.00007333      -0.00001927       0.00000000
N        6.42835796      29.39639451       3.49997020       0.00023511       0.00005845       0.00000000
B        5.66208470      30.62534630       3.49997020      -0.00002308      -0.00010943       0.00000000
N        6.34321164      31.90345318       3.49997020       0.00057002      -0.00014566       0.00000000
B        7.79066780      31.95260742       3.49997020      -0.00054703       0.00001522       0.00000000
N        8.47179707      33.23071438       3.49997020       0.00011442      -0.00025440       0.00000000
B        7.70552465      34.45965884       3.49997020      -0.00050592       0.00023249       0.00000000
N        8.38665510      35.73775971       3.49997020      -0.00033585       0.00015480       0.00000000
B        9.83410613      35.78691994       3.49997020       0.00000327       0.00022370       0.00000000
N       10.51524897      37.06501662       3.49997020      -0.00012697       0.00030780       0.00000000
B        9.74895703      38.29397283       3.49997020       0.00041438      -0.00025122       0.00000000
N       10.43010727      39.57207256       3.49997020      -0.00048244      -0.00002759       0.00000000
B       11.87755619      39.62122928       3.49997020       0.00012204      -0.00005031       0.00000000
N       12.55870366      40.89933624       3.49997020       0.00016060      -0.00004063       0.00000000
B       11.79240889      42.12827931       3.49997020       0.00016252      -0.00005707       0.00000000
N       12.47356227      43.40638449       3.49997020      -0.00031489       0.00035492       0.00000000
B       13.92100973      43.45553792       3.49997020       0.00000650       0.00006861       0.00000000
N       14.60216369      44.73364771       3.49997020      -0.00036171       0.00026084       0.00000000
B       13.83585944      45.96259337       3.49997020       0.00015940      -0.00019805       0.00000000
N       14.51701344      47.24069742       3.49997020       0.00007151       0.00035574       0.00000000
B       15.96446273      47.28985569       3.49997020       0.00011569      -0.00021898       0.00000000
N       16.64561947      48.56795546       3.49997020      -0.00053990       0.00016442       0.00000000
B       15.87931386      49.79690775       3.49997020       0.00033052      -0.00027929       0.00000000
N       16.56047098      51.07501212       3.49997020      -0.00017083       0.00032276       0.00000000
B       18.00791402      51.12416569       3.49997020       0.00026135       0.00005104       0.00000000
N       18.68907030      52.40227391       3.49997020      -0.00002434       0.00018644       0.00000000
B       17.92276742      53.63121406       3.49997020       0.00008372      -0.00004005       0.00000000
N       18.60392081      54.90932483       3.49997020       0.00024027       0.00004020       0.00000000
B       20.05137090      54.95846965       3.49997020      -0.00010107       0.00012298       0.00000000
N       20.73251858      56.23657757       3.49997020       0.00023922      -0.00034244       0.00000000
B       19.96622377      57.46549706       3.49997020      -0.00018715      -0.00000320       0.00000000
N       20.64738025      58.74358508       3.49997020      -0.00032724       0.00003947       0.00000000
B       22.09481825      58.79273794       3.49997020       0.00014330      -0.00017829       0.00000000
N       22.77597937      60.07081494       3.49997020      -0.00009096      -0.00034563       0.00000000
B       22.00967598      61.29972988       3.49997020       0.00015861      -0.00018506       0.00000000
N       22.69084966      62.57779250       3.49997020       0.00016098      -0.00040613       0.00000000
B       24.13828836      62.62694746       3.49997020      -0.00009178      -0.00002328       0.00000000
N       24.81946639      63.90500938       3.49997020      -0.00040083      -0.00030776       0.00000000
N        0.46841885      12.87934907       3.49997020      -0.00005612      -0.00019955       0.00000000
N        0.38326857      15.38639281       3.49997020       0.00003809       0.00032660       0.00000000
B        1.83068399      15.43555983       3.49997020       0.00011379      -0.00014725       0.00000000
N        2.51181650      16.71366080       3.49997020      -0.00033688       0.00044496       0.00000000
B        1.74553436      17.94261116       3.49997020       0.00051615      -0.00016149       0.00000000
N        2.42667092      19.22071900       3.49997020      -0.00051881      -0.00009645       0.00000000
B        3.87408396      19.26987796       3.49997020       0.00067152      -0.00000387       0.00000000
N        4.55522185      20.54797998       3.49997020       0.00004897       0.00006493       0.00000000
B        3.78893765      21.77692768       3.49997020       0.00060395       0.00002077       0.00000000
N        4.47007637      23.05503047       3.49997020       0.00013415      -0.00008272       0.00000000
B        5.91751811      23.10419138       3.49997020      -0.00046945      -0.00004818       0.00000000
N        6.59864075      24.38229536       3.49997020       0.00070673      -0.00008149       0.00000000
B        5.83237316      25.61124053       3.49997020      -0.00036715       0.00002970       0.00000000
N        6.51349793      26.88934521       3.49997020       0.00047346      -0.00004161       0.00000000
B        7.96095800      26.93849987       3.49997020      -0.00039833       0.00033015       0.00000000
N        8.64209310      28.21661027       3.49997020      -0.00038065      -0.00008444       0.00000000
B        7.87581117      29.44555834       3.49997020      -0.00017289      -0.00021400       0.00000000
N        8.55694673      30.72366049       3.49997020      -0.00027313       0.00007491       0.00000000
B       10.00439636      30.77281793       3.49997020       0.00030251      -0.00017292       0.00000000
N       10.68554683      32.05091811       3.49997020      -0.00054711       0.00014210       0.00000000
B        9.91924939      33.27986637       3.49997020       0.00033774       0.00043288       0.00000000
N       10.60039558      34.55797770       3.49997020      -0.00004542      -0.00084024       0.00000000
B       12.04785043      34.60712691       3.49997020      -0.00017787       0.00016403       0.00000000
N       12.72899868      35.88522906       3.49997020      -0.00003362       0.00006606       0.00000000
B       11.96270222      37.11417927       3.49997020      -0.00001074       0.00003706       0.00000000
N       12.64385671      38.39228502       3.49997020      -0.00041926      -0.00009141       0.00000000
B       14.09130048      38.44143937       3.49997020       0.00008179      -0.00002179       0.00000000
N       14.77245657      39.71953870       3.49997020      -0.00019438       0.00048329       0.00000000
B       14.00615522      40.94849228       3.49997020      -0.00002058      -0.00034192       0.00000000
N       14.68730607      42.22659986       3.49997020       0.00016575      -0.00020381       0.00000000
B       16.13475382      42.27574907       3.49997020       0.00024222      -0.00000698       0.00000000
N       16.81591096      43.55385918       3.49997020      -0.00009578      -0.00028770       0.00000000
B       16.04960695      44.78280226       3.49997020       0.00016000      -0.00015322       0.00000000
N       16.73076205      46.06090647       3.49997020       0.00008361       0.00045816       0.00000000
B       18.17821136      46.11006221       3.49997020      -0.00006051       0.00007971       0.00000000
N       18.85935983      47.38817269       3.49997020       0.00007857      -0.00044053       0.00000000
B       18.09306145      48.61711331       3.49997020       0.00008778      -0.00001425       0.00000000
N       18.77421536      49.89521840       3.49997020      -0.00024220       0.00027056       0.00000000
B       20.22166105      49.94437076       3.49997020       0.00024180       0.00019086       0.00000000
N       20.90281656      51.22248019       3.49997020      -0.00040242       0.00030322       0.00000000
B       20.13651253      52.45142818       3.49997020       0.00012072      -0.00030021       0.00000000
N       20.81766827      53.72953472       3.49997020      -0.00012589       0.00033237       0.00000000
B       22.26511204      53.77868222       3.49997020       0.00043950       0.00006205       0.00000000
N       22.94627173      55.05679304       3.49997020      -0.00037419      -0.00000932       0.00000000
B       22.17996694      56.28571986       3.49997020       0.00001745      -0.00006311       0.00000000
N       22.86112437      57.56381780       3.49997020       0.00008502      -0.00033960       0.00000000
B       24.30856538      57.61297093       3.49997020       0.00013102      -0.00077140       0.00000000
N       24.98971935      58.89104776       3.49997020       0.00014874      -0.00016493       0.00000000
B       24.22342158      60.11996976       3.49997020      -0.00019925      -0.00000677       0.00000000
N       24.90458165      61.39803734       3.49997020       0.00003504      -0.00030458       0.00000000
B       26.35201874      61.44718448       3.49997020       0.00014696       0.00001533       0.00000000
N       27.03318959      62.72525203       3.49997020      -0.00054818      -0.00028614       0.00000000
B       26.26689571      63.95415882       3.49997020       0.00047406      -0.00006787       0.00000000
N        0.63870647       7.86526636       3.49997020       0.00014308       0.00020966       0.00000000
N        0.55356177      10.37229993       3.49997020       0.00009108       0.00014577       0.00000000
B        2.00097741      10.42146287       3.49997020       0.00029665       0.00014873       0.00000000