972
Lattice="39.10314667281021 0.0 0.0 0.0 67.7286335700058 0.0 0.0 0.0 100.0" Properties=species:S:1:pos:R:3:forces:R:3 energy=-187895.80053710938 stress="1.3668576492875673e-08 -2.838840718055735e-09 -0.0 -2.838840718055735e-09 -4.809211695544491e-09 -0.0 -0.0 -0.0 -0.0" free_energy=-187895.80053710938 pbc="T T T"
B        0.18114465      66.78817294       3.49997020       0.00004137      -0.00000213       0.00000000
B        0.18112656      61.77127333       3.49997020       0.00016971       0.00019893       0.00000000
N        0.90526356      63.02549833       3.49997020       0.00016227      -0.00017743       0.00000000
B        0.18113553      64.27972324       3.49997020      -0.00011787      -0.00010055       0.00000000
N        0.90526822      65.53394568       3.49997020       0.00051604       0.00019905       0.00000000
B        2.35353039      65.53394835       3.49997020      -0.00001749      -0.00005548       0.00000000
N        3.07766944      66.78817588       3.49997020      -0.00003676      -0.00028790       0.00000000
B        0.18112442      56.75437506       3.49997020       0.00003090       0.00008905       0.00000000
N        0.90525820      58.00860402       3.49997020      -0.00011690      -0.00001187       0.00000000
B        0.18112348      59.26282770       3.49997020       0.00000478      -0.00008924       0.00000000
N        0.90525842      60.51704945       3.49997020      -0.00004885       0.00001344       0.00000000
B        2.35351809      60.51705213       3.49997020       0.00004868      -0.00012569       0.00000000
N        3.07765291      61.77127454       3.49997020      -0.00005885       0.00033178       0.00000000
B        2.35352299      63.02550529       3.49997020      -0.00000215      -0.00028684       0.00000000
N        3.07765966      64.27972490       3.49997020      -0.00007756       0.00019916       0.00000000
B        4.52592026      64.27973146       3.49997020       0.00003592      -0.00006753       0.00000000
N        5.25006031      65.53395292       3.49997020      -0.00015916       0.00017260       0.00000000
B        4.52592705      66.78817941       3.49997020       0.00021122       0.00001038       0.00000000
B        0.18113017      51.73746256       3.49997020       0.00002327      -0.00032507       0.00000000
N        0.90526053      52.99168982       3.49997020       0.00006685       0.00017496       0.00000000
B        0.18113139      54.24592321       3.49997020      -0.00018397      -0.00010936       0.00000000
N        0.90525904      55.50015496       3.49997020      -0.00001127      -0.00030284       0.00000000
B        2.35351685      55.50015234       3.49997020       0.00011991       0.00015986       0.00000000
N        3.07765070      56.75438499       3.49997020      -0.00013443      -0.00010765       0.00000000
B        2.35351606      58.00860454       3.49997020       0.00010576      -0.00020064       0.00000000
N        3.07764795      59.26282903       3.49997020      -0.00004504       0.00023076       0.00000000
B        4.52590990      59.26283556       3.49997020      -0.00008182      -0.00001429       0.00000000
N        5.25004435      60.51705811       3.49997020       0.00002891      -0.00001725       0.00000000
B        4.52591185      61.77128062       3.49997020       0.00005380       0.00016705       0.00000000
N        5.25004724      63.02550791       3.49997020      -0.00012794      -0.00022620       0.00000000
B        6.69830810      63.02550786       3.49997020       0.00001202      -0.00008010       0.00000000
N        7.42244518      64.27973277       3.49997020       0.00023415      -0.00000925       0.00000000
B        6.69831791      65.53395037       3.49997020       0.00001362       0.00019483       0.00000000
N        7.42245335      66.78817976       3.49997020       0.00017878       0.00004631       0.00000000
B        8.87071876      66.78818223       3.49997020      -0.00002681      -0.00029485       0.00000000
B        0.18113597      46.72051022       3.49997020       0.00005787       0.00002843       0.00000000
N        0.90526515      47.97475128       3.49997020      -0.00025711      -0.00001753       0.00000000
B        0.18113340      49.22898811       3.49997020       0.00008112      -0.00016903       0.00000000
N        0.90526088      50.48322473       3.49997020      -0.00007217      -0.00003629       0.00000000
B        2.35352360      50.48323205       3.49997020      -0.00006418      -0.00027684       0.00000000
N        3.07765004      51.73746482       3.49997020       0.00005799      -0.00004816       0.00000000
B        2.35352051      52.99169651       3.49997020       0.00005371      -0.00000196       0.00000000
N        3.07765183      54.24592466       3.49997020      -0.00031603      -0.00015251       0.00000000
B        4.52591018      54.24593335       3.49997020      -0.00003449      -0.00032636       0.00000000
N        5.25003748      55.50015698       3.49997020       0.00018836       0.00015261       0.00000000
B        4.52590811      56.75438382       3.49997020      -0.00004713       0.00013353       0.00000000
N        5.25003809      58.00861162       3.49997020       0.00023834      -0.00025352       0.00000000
B        6.69829908      58.00861391       3.49997020       0.00003993      -0.00013295       0.00000000
N        7.42243273      59.26284003       3.49997020       0.00002715      -0.00011221       0.00000000
B        6.69830383      60.51706044       3.49997020      -0.00004579      -0.00000402       0.00000000
N        7.42243777      61.77128313       3.49997020       0.00012457       0.00012868       0.00000000
B        8.87069919      61.77128520       3.49997020       0.00005137       0.00017777       0.00000000
N        9.59483662      63.02550878       3.49997020      -0.00011984      -0.00015065       0.00000000
B        8.87070897      64.27972901       3.49997020      -0.00003867       0.00001625       0.00000000
N        9.59484938      65.53395274       3.49997020      -0.00009736       0.00021254       0.00000000
B       11.04311072      65.53394648       3.49997020      -0.00000941       0.00061732       0.00000000
N       11.76724664      66.78818146       3.49997020       0.00017182      -0.00073830       0.00000000
B        0.18114083      41.70354084       3.49997020       0.00006578      -0.00004737       0.00000000
N        0.90526651      42.95778601       3.49997020      -0.00002571      -0.00011554       0.00000000
B        0.18113934      44.21202697       3.49997020      -0.00003330      -0.00014377       0.00000000
N        0.90526390      45.46626713       3.49997020       0.00006109       0.00004432       0.00000000
B        2.35352688      45.46627331       3.49997020      -0.00008298      -0.00011157       0.00000000
N        3.07765116      46.72051565       3.49997020       0.00006119      -0.00023411       0.00000000
B        2.35352425      47.97475343       3.49997020       0.00004672       0.00019105       0.00000000
N        3.07764944      49.22899086       3.49997020       0.00006547      -0.00016717       0.00000000
B        4.52591292      49.22900091       3.49997020      -0.00026815      -0.00008739       0.00000000
N        5.25003490      50.48323615       3.49997020       0.00008667      -0.00011158       0.00000000
B        4.52591050      51.73747043       3.49997020      -0.00011036      -0.00016422       0.00000000
N        5.25003456      52.99170254       3.49997020       0.00009332      -0.00006692       0.00000000
B        6.69829711      52.99170771       3.49997020      -0.00005632       0.00002592       0.00000000
N        7.42242660      54.24593958       3.49997020       0.00008711      -0.00027782       0.00000000
B        6.69829816      55.50016005       3.49997020      -0.00003831       0.00005097       0.00000000
N        7.42243187      56.75438901       3.49997020      -0.00016183       0.00010908       0.00000000
B        8.87069043      56.75438918       3.49997020      -0.00005756       0.00021615       0.00000000
N        9.59482570      58.00861576       3.49997020       0.00004168      -0.00014402       0.00000000
B        8.87069428      59.26284002       3.49997020      -0.00000239       0.00012280       0.00000000
N        9.59482864      60.51706189       3.49997020      -0.00007538      -0.00013113       0.00000000
B       11.04309064      60.51706260       3.49997020       0.00009617      -0.00008362       0.00000000
N       11.76723259      61.77128324       3.49997020      -0.00001600       0.00029747       0.00000000
B       11.04309983      63.02551028       3.49997020       0.00004836      -0.00010953       0.00000000
N       11.76723904      64.27973347       3.49997020       0.00023454      -0.00013110       0.00000000
B       13.21550169      64.27973080       3.49997020       0.00004708      -0.00015196       0.00000000
N       13.93964312      65.53394805       3.49997020       0.00007338       0.00013858       0.00000000
B       13.21551352      66.78817538       3.49997020      -0.00013996       0.00001151       0.00000000
B        0.18114448      36.68657295       3.49997020       0.00003016      -0.00000009       0.00000000
N        0.90527033      37.94081974       3.49997020       0.00000127      -0.00029039       0.00000000
B        0.18114226      39.19505872       3.49997020       0.00005683       0.00003400       0.00000000
N        0.90526621      40.44929825       3.49997020       0.00007479       0.00028741       0.00000000
B        2.35352917      40.44930283       3.49997020      -0.00010999       0.00010436       0.00000000
N        3.07765299      41.70354406       3.49997020       0.00004014       0.00022134       0.00000000
B        2.35352781      42.95778812       3.49997020       0.00002011      -0.00004051       0.00000000
N        3.07765133      44.21203129       3.49997020       0.00009668      -0.00009134       0.00000000
B        4.52591504      44.21203759       3.49997020      -0.00020577      -0.00009109       0.00000000
N        5.25003564      45.46628084       3.49997020       0.00016754      -0.00026896       0.00000000
B        4.52591335      46.72051722       3.49997020      -0.00030776      -0.00000531       0.00000000
N        5.25003438      47.97475518       3.49997020       0.00018132       0.00016287       0.00000000
B        6.69829586      47.97476219       3.49997020      -0.00000327       0.00006220       0.00000000
N        7.42241971      49.22900240       3.49997020       0.00007503      -0.00027995       0.00000000
B        6.69829466      50.48323739       3.49997020       0.00008596       0.00004362       0.00000000
N        7.42242575      51.73747622       3.49997020      -0.00011168      -0.00027143       0.00000000
B        8.87068115      51.73748300       3.49997020       0.00012506      -0.00047652       0.00000000
N        9.59481513      52.99171227       3.49997020      -0.00010949       0.00039944       0.00000000
B        8.87068482      54.24594112       3.49997020       0.00005610      -0.00021969       0.00000000
N        9.59481818      55.50016900       3.49997020       0.00017745      -0.00019930       0.00000000
B       11.04307810      55.50017587       3.49997020       0.00012179      -0.00038865       0.00000000
N       11.76721758      56.75439543       3.49997020      -0.00001971       0.00019656       0.00000000
B       11.04308735      58.00862079       3.49997020       0.00000545      -0.00023353       0.00000000
N       11.76722521      59.26284085       3.49997020      -0.00010214       0.00001708       0.00000000
B       13.21548470      59.26284306       3.49997020       0.00009958       0.00017168       0.00000000
N       13.93962342      60.51706249       3.49997020       0.00002892      -0.00005354       0.00000000
B       13.21549252      61.77128584       3.49997020       0.00016181       0.00013204       0.00000000
N       13.93963534      63.02550513       3.49997020      -0.00024572       0.00005764       0.00000000
B       15.38789760      63.02550568       3.49997020       0.00013373      -0.00007266       0.00000000
N       16.11204002      64.27972700       3.49997020      -0.00004872       0.00024349       0.00000000
B       15.38790806      65.53394851       3.49997020       0.00006888      -0.00001386       0.00000000
N       16.11205057      66.78817634       3.49997020       0.00001153      -0.00049443       0.00000000
B       17.56031702      66.78817259       3.49997020       0.00003939      -0.00005484       0.00000000
B        0.18115069      31.66960215       3.49997020      -0.00004074       0.00013698       0.00000000
N        0.90527716      32.92384689       3.49997020      -0.00013982      -0.00018922       0.00000000
B        0.18114753      34.17809052       3.49997020      -0.00004165       0.00008456       0.00000000
N        0.90527187      35.43233117       3.49997020      -0.00003977       0.00004739       0.00000000
B        2.35353304      35.43233581       3.49997020       0.00001017      -0.00013256       0.00000000
N        3.07765852      36.68657827       3.49997020      -0.00003045      -0.00003621       0.00000000
B        2.35353231      37.94081578       3.49997020      -0.00003579       0.00026207       0.00000000
N        3.07765555      39.19506400       3.49997020       0.00008293      -0.00034529       0.00000000
B        4.52591745      39.19506457       3.49997020      -0.00009900       0.00007069       0.00000000
N        5.25003916      40.44931089       3.49997020       0.00015052      -0.00014653       0.00000000
B        4.52591605      41.70355198       3.49997020      -0.00018932       0.00008271       0.00000000
N        5.25004057      42.95779372       3.49997020      -0.00005785      -0.00001768       0.00000000
B        6.69829943      42.95779541       3.49997020      -0.00004787       0.00005962       0.00000000
N        7.42242124      44.21203807       3.49997020      -0.00006520      -0.00004157       0.00000000
B        6.69829505      45.46628182       3.49997020       0.00007384      -0.00012624       0.00000000
N        7.42242016      46.72052111       3.49997020      -0.00006040      -0.00007652       0.00000000
B        8.87068109      46.72052173       3.49997020      -0.00008397       0.00000769       0.00000000
N        9.59480538      47.97476253       3.49997020       0.00002185       0.00022090       0.00000000
B        8.87067818      49.22900540       3.49997020       0.00026410       0.00023873       0.00000000
N        9.59480644      50.48324434       3.49997020      -0.00006479      -0.00049830       0.00000000
B       11.04306717      50.48324754       3.49997020       0.00011710       0.00003412       0.00000000
N       11.76720202      51.73748658       3.49997020      -0.00000520      -0.00024214       0.00000000
B       11.04307251      52.99172176       3.49997020       0.00021338      -0.00050330       0.00000000
N       11.76721150      54.24594685       3.49997020      -0.00020492       0.00046630       0.00000000
B       13.21547149      54.24596031       3.49997020       0.00024955      -0.00030472       0.00000000
N       13.93961015      55.50018190       3.49997020       0.00009331      -0.00025884       0.00000000
B       13.21548015      56.75439836       3.49997020       0.00000473       0.00022889       0.00000000
N       13.93961902      58.00862373       3.49997020      -0.00009632      -0.00035075       0.00000000
B       15.38788257      58.00862548       3.49997020       0.00016083      -0.00018360       0.00000000
N       16.11202452      59.26284573       3.49997020       0.00026544       0.00000971       0.00000000
B       15.38789039      60.51706472       3.49997020      -0.00010733      -0.00001612       0.00000000
N       16.11203237      61.77128380       3.49997020       0.00014838       0.00016511       0.00000000
B       17.56029760      61.77128310       3.49997020      -0.00001585       0.00027574       0.00000000
N       18.28443863      63.02550342       3.49997020       0.00010548      -0.00030810       0.00000000
B       17.56030666      64.27972705       3.49997020      -0.00007619       0.00002632       0.00000000
N       18.28445112      65.53394424       3.49997020      -0.00009070       0.00022983       0.00000000
B       19.73271852      65.53394194       3.49997020      -0.00022532       0.00032383       0.00000000
N       20.45685833      66.78817040       3.49997020      -0.00002490      -0.00003134       0.00000000
B        0.18115696      26.65263511       3.49997020      -0.00002387      -0.00002035       0.00000000
N        0.90527959      27.90687869       3.49997020       0.00008751      -0.00003393       0.00000000
B        0.18115317      29.16111756       3.49997020      -0.00009141      -0.00000260       0.00000000
N        0.90527690      30.41536019       3.49997020       0.00004884       0.00004067       0.00000000
B        2.35353866      30.41536151       3.49997020       0.00001233      -0.00001654       0.00000000
N        3.07766366      31.66960671       3.49997020      -0.00005294      -0.00001306       0.00000000
B        2.35353589      32.92384789       3.49997020       0.00001710      -0.00001167       0.00000000
N        3.07765975      34.17809157       3.49997020       0.00004310       0.00014954       0.00000000
B        4.52592244      34.17809607       3.49997020      -0.00006270       0.00001617       0.00000000
N        5.25004528      35.43233987       3.49997020       0.00010782      -0.00005881       0.00000000
B        4.52591839      36.68658105       3.49997020      -0.00000427      -0.00007212       0.00000000
N        5.25004036      37.94082415       3.49997020       0.00012438       0.00007540       0.00000000
B        6.69830275      37.94082710       3.49997020      -0.00002982      -0.00001529       0.00000000
N        7.42242592      39.19506832       3.49997020       0.00006467       0.00008610       0.00000000
B        6.69830164      40.44931489       3.49997020      -0.00013108      -0.00022917       0.00000000
N        7.42242233      41.70355464       3.49997020       0.00011447      -0.00000145       0.00000000
B        8.87068310      41.70355385       3.49997020       0.00005557       0.00023864       0.00000000
N        9.59480593      42.95779334       3.49997020       0.00002550       0.00001954       0.00000000
B        8.87067988      44.21203804       3.49997020       0.00010470       0.00013741       0.00000000
N        9.59480187      45.46628486       3.49997020       0.00028617      -0.00041660       0.00000000
B       11.04306597      45.46628306       3.49997020      -0.00004136      -0.00002044       0.00000000
N       11.76718936      46.72052337       3.49997020      -0.00000130      -0.00020568       0.00000000
B       11.04306486      47.97476510       3.49997020       0.00029943       0.00018609       0.00000000
N       11.76719355      49.22900982       3.49997020      -0.00014616      -0.00023392       0.00000000
B       13.21546030      49.22901570       3.49997020       0.00010204       0.00003283       0.00000000
N       13.93959122      50.48325942       3.49997020       0.00038636      -0.00008100       0.00000000
B       13.21546517      51.73749383       3.49997020       0.00018994      -0.00027340       0.00000000
N       13.93960378      52.99173101       3.49997020       0.00014104      -0.00014701       0.00000000
B       15.38787421      52.99173120       3.49997020       0.00011735      -0.00034035       0.00000000
N       16.11201289      54.24596038       3.49997020       0.00008420       0.00012816       0.00000000
B       15.38787618      55.50018545       3.49997020       0.00015415      -0.00049012       0.00000000
N       16.11202103      56.75440247       3.49997020      -0.00001448       0.00017589       0.00000000
B       17.56028699      56.75440286       3.49997020       0.00007483       0.00005309       0.00000000
N       18.28443156      58.00861944       3.49997020      -0.00008561      -0.00000463       0.00000000
B       17.56029165      59.26284446       3.49997020       0.00010165       0.00004558       0.00000000
N       18.28443439      60.51706461       3.49997020      -0.00000960      -0.00019816       0.00000000
B       19.73270327      60.51706194       3.49997020       0.00008283      -0.00020469       0.00000000
N       20.45684556      61.77127813       3.49997020      -0.00027160       0.00026761       0.00000000
B       19.73270539      63.02550396       3.49997020       0.00004708      -0.00011522       0.00000000
N       20.45685019      64.27973008       3.49997020       0.00031020      -0.00043862       0.00000000
B       21.90511711      64.27972680       3.49997020       0.00005449       0.00000478       0.00000000
N       22.62926160      65.53394067       3.49997020      -0.00006368      -0.00007839       0.00000000
B       21.90512658      66.78816646       3.49997020      -0.00006990      -0.00007284       0.00000000
B        0.18116080      21.63566517       3.49997020      -0.00002283      -0.00007485       0.00000000
N        0.90528762      22.88990730       3.49997020      -0.00013769      -0.00001204       0.00000000
B        0.18115827      24.14414974       3.49997020       0.00004120       0.00003831       0.00000000
N        0.90528414      25.39839383       3.49997020      -0.00006465       0.00000251       0.00000000
B        2.35354520      25.39839553       3.49997020       0.00001442      -0.00011154       0.00000000
N        3.07766912      26.65263709       3.49997020       0.00007764      -0.00003786       0.00000000
B        2.35354321      27.90687774       3.49997020      -0.00007023       0.00012677       0.00000000
N        3.07766647      29.16112057       3.49997020       0.00001077      -0.00004683       0.00000000
B        4.52592820      29.16112348       3.49997020      -0.00002614       0.00003362       0.00000000
N        5.25005096      30.41536860       3.49997020       0.00006374      -0.00017081       0.00000000
B        4.52592501      31.66960920       3.49997020      -0.00003641       0.00005138       0.00000000
N        5.25004745      32.92385036       3.49997020       0.00003337       0.00005085       0.00000000
B        6.69830961      32.92385318       3.49997020       0.00004323      -0.00027695       0.00000000
N        7.42243046      34.17809728       3.49997020       0.00010256       0.00025872       0.00000000
B        6.69830563      35.43233875       3.49997020       0.00002311      -0.00001093       0.00000000
N        7.42242697      36.68658271       3.49997020       0.00000267      -0.00020694       0.00000000
B        8.87068918      36.68657944       3.49997020       0.00006452       0.00002351       0.00000000
N        9.59481208      37.94082215       3.49997020       0.00011333       0.00020319       0.00000000
B        8.87068766      39.19507052       3.49997020      -0.00000488      -0.00028485       0.00000000
N        9.59480999      40.44931430       3.49997020      -0.00003830      -0.00028471       0.00000000
B       11.04307205      40.44930715       3.49997020       0.00001456       0.00023922       0.00000000
N       11.76719208      41.70354752       3.49997020       0.00014822       0.00021956       0.00000000
B       11.04306769      42.95779332       3.49997020       0.00005523      -0.00022712       0.00000000
N       11.76718872      44.21203724       3.49997020       0.00013408       0.00011912       0.00000000
B       13.21546208      44.21203435       3.49997020      -0.00012902      -0.00019880       0.00000000
N       13.93958191      45.46627963       3.49997020       0.00012990      -0.00014545       0.00000000
B       13.21545963      46.72052090       3.49997020      -0.00000340       0.00032250       0.00000000
N       13.93958292      47.97477094       3.49997020       0.00032424      -0.00004862       0.00000000
B       15.38786795      47.97476391       3.49997020       0.00003709       0.00039282       0.00000000
N       16.11200093      49.22902126       3.49997020       0.00009445      -0.00035149       0.00000000
B       15.38786973      50.48325590       3.49997020       0.00004573       0.00008040       0.00000000
N       16.11201317      51.73750044       3.49997020      -0.00011694      -0.00028005       0.00000000
B       17.56029367      51.73749800       3.49997020      -0.00015811      -0.00005532       0.00000000
N       18.28442845      52.99173577       3.49997020       0.00041975      -0.00005168       0.00000000
B       17.56028749      54.24596748       3.49997020      -0.00003968      -0.00037861       0.00000000
N       18.28443175      55.50018716       3.49997020       0.00023808      -0.00036226       0.00000000
B       19.73270711      55.50018372       3.49997020      -0.00016519      -0.00030051       0.00000000
N       20.45684301      56.75439885       3.49997020       0.00012794       0.00008663       0.00000000
B       19.73270192      58.00862172       3.49997020       0.00006353      -0.00028049       0.00000000
N       20.45684256      59.26284174       3.49997020      -0.00000556       0.00017949       0.00000000
B       21.90511065      59.26283564       3.49997020      -0.00014825       0.00009422       0.00000000
N       22.62924541      60.51705475       3.49997020       0.00013380      -0.00020941       0.00000000
B       21.90510953      61.77127702       3.49997020       0.00009921       0.00009584       0.00000000
N       22.62924816      63.02549926       3.49997020      -0.00001438       0.00018702       0.00000000
B       24.07751645      63.02549849       3.49997020       0.00003378       0.00000336       0.00000000
N       24.80165816      64.27972260       3.49997020       0.00008595      -0.00036041       0.00000000
B       24.07752726      65.53393961       3.49997020      -0.00017000       0.00001002       0.00000000
N       24.80166779      66.78816085       3.49997020      -0.00013352       0.00011797       0.00000000
B       26.24992908      66.78816009       3.49997020      -0.00007069       0.00016793       0.00000000
B        0.18116835      16.61870841       3.49997020      -0.00004589       0.00017571       0.00000000
N        0.90529413      17.87294995       3.49997020       0.00008036      -0.00002426       0.00000000
B        0.18116526      19.12718414       3.49997020      -0.00006816       0.00006737       0.00000000
N        0.90528968      20.38142388       3.49997020      -0.00001324       0.00030263       0.00000000
B        2.35355152      20.38142636       3.49997020      -0.00004652       0.00014569       0.00000000
N        3.07767576      21.63566989       3.49997020      -0.00004213      -0.00003937       0.00000000
B        2.35354779      22.88991033       3.49997020       0.00000956      -0.00002303       0.00000000
N        3.07767211      24.14415211       3.49997020       0.00007916       0.00021996       0.00000000
B        4.52593553      24.14415544       3.49997020      -0.00026446       0.00004512       0.00000000
N        5.25005629      25.39839709       3.49997020       0.00020841      -0.00000838       0.00000000
B        4.52593286      26.65263991       3.49997020      -0.00018438       0.00000999       0.00000000
N        5.25005319      27.90688372       3.49997020       0.00004106       0.00003297       0.00000000
B        6.69831307      27.90688330       3.49997020       0.00003235       0.00005734       0.00000000
N        7.42243901      29.16112790       3.49997020       0.00001714      -0.00004219       0.00000000
B        6.69831184      30.41536722       3.49997020       0.00000708       0.00002963       0.00000000
N        7.42243505      31.66960983       3.49997020       0.00005330       0.00013432       0.00000000
B        8.87069885      31.66960968       3.49997020       0.00001038       0.00003747       0.00000000
N        9.59482249      32.92384927       3.49997020       0.00008656      -0.00002487       0.00000000
B        8.87069412      34.17809725       3.49997020       0.00004876       0.00002396       0.00000000
N        9.59481835      35.43234041       3.49997020      -0.00012138      -0.00013421       0.00000000
B       11.04308171      35.43233653       3.49997020       0.00007795      -0.00012064       0.00000000
N       11.76720048      36.68657539       3.49997020       0.00031955       0.00017928       0.00000000
B       11.04307621      37.94082253       3.49997020      -0.00008068      -0.00004190       0.00000000
N       11.76719762      39.19506677       3.49997020       0.00007341      -0.00041709       0.00000000
B       13.21547008      39.19506316       3.49997020      -0.00014170      -0.00033368       0.00000000
N       13.93959064      40.44930224       3.49997020       0.00036069       0.00015446       0.00000000
B       13.21546564      41.70354650       3.49997020      -0.00017342       0.00014228       0.00000000
N       13.93958714      42.95778796       3.49997020       0.00008034       0.00011703       0.00000000
B       15.38787037      42.95778654       3.49997020       0.00005056       0.00001164       0.00000000
N       16.11199756      44.21202841       3.49997020       0.00000267       0.00002949       0.00000000
B       15.38786340      45.46627536       3.49997020       0.00025097       0.00003694       0.00000000
N       16.11199484      46.72052029       3.49997020      -0.00008940      -0.00001033       0.00000000
B       17.56028923      46.72051972       3.49997020       0.00018261      -0.00015425       0.00000000
N       18.28443150      47.97477515       3.49997020       0.00001633       0.00034106       0.00000000
B       17.56029063      49.22901696       3.49997020      -0.00009991       0.00040994       0.00000000