1944
Lattice="50.70118286844994 0.0 0.0 0.0 87.81702473199607 0.0 0.0 0.0 100.0" Properties=species:S:1:pos:R:3:forces:R:3 energy=-664623.3493652344 free_energy=-664623.3493652344 pbc="T T T"
Si       1.40851678       1.62643271       3.50065643      -0.00017471      -0.00037360       0.00195620
Si       4.22518409       3.25258838       3.50061879       0.00009678      -0.00001463       0.00234023
Si       4.22518447       6.50500860       3.50062986       0.00006625       0.00045427       0.00210068
Si       1.40851674       8.13127357       3.50064326      -0.00015090       0.00003631       0.00203835
Si       1.40851683      11.38374569       3.50064324      -0.00013484       0.00000264       0.00204243
Si       4.22518369      13.01002294       3.50063078       0.00011986      -0.00011790       0.00212473
Si       4.22518421      16.26250022       3.50063076       0.00005288       0.00018727       0.00213054
Si       1.40851641      17.88877781       3.50064323      -0.00012626      -0.00002866       0.00205478
Si       1.40851565      21.14125208       3.50064382      -0.00003190      -0.00002182       0.00202792
Si       4.22518418      22.76753100       3.50063169       0.00009848      -0.00015463       0.00208304
Si       4.22518402      26.02000742       3.50063057       0.00009971       0.00004868       0.00214825
Si       1.40851674      27.64628574       3.50064248      -0.00018278      -0.00001139       0.00210311
Si       1.40851607      30.89876076       3.50064367      -0.00011517      -0.00000686       0.00203209
Si       4.22518375      32.52503897       3.50063031       0.00010246      -0.00022334       0.00215376
Si       4.22518432      35.77751468       3.50063121       0.00008727       0.00011380       0.00213103
Si       1.40851662      37.40379348       3.50064321      -0.00015980      -0.00008819       0.00205837
Si       1.40851583      40.65626586       3.50064392      -0.00017104       0.00010520       0.00200587
Si       4.22518451      42.28254474       3.50063100       0.00008001      -0.00006587       0.00215691
Si       4.22518366      45.53502096       3.50063162       0.00008271       0.00034828       0.00208758
Si       1.40851558      47.16129972       3.50064329      -0.00011365      -0.00019358       0.00199970
Si       1.40851620      50.41377422       3.50064490      -0.00015610       0.00009831       0.00192236
Si       4.22518426      52.04005227       3.50063132       0.00007137      -0.00002336       0.00212166
Si       4.22518422      55.29253115       3.50063101       0.00007610       0.00018511       0.00209582
Si       1.40851590      56.91880818       3.50064385      -0.00010372       0.00009250       0.00198706
Si       1.40851642      60.17128307       3.50064318      -0.00014674      -0.00007329       0.00208447
Si       4.22518394      61.79756085       3.50063118       0.00013039      -0.00032594       0.00209195
Si       4.22518369      65.05003514       3.50063038       0.00011044       0.00022729       0.00216804
Si       1.40851614      66.67631815       3.50064355      -0.00011689      -0.00004539       0.00202271
Si       1.40851599      69.92878857       3.50064361      -0.00009393       0.00010261       0.00205732
Si       4.22518417      71.55506762       3.50063131       0.00006547      -0.00018105       0.00212190
Si       4.22518304      74.80754307       3.50063157       0.00013122       0.00025449       0.00206554
Si       1.40851581      76.43382040       3.50064351      -0.00008586      -0.00001310       0.00199798
Si       1.40851674      79.68629631       3.50064422      -0.00015047      -0.00004916       0.00195587
Si       4.22518428      81.31256119       3.50062979       0.00006994      -0.00047179       0.00208051
Si       4.22518402      84.56497882       3.50061828       0.00007253       0.00007622       0.00234947
Si       1.40851669      86.19113840       3.50065756      -0.00015056       0.00016862       0.00185154
Si       7.04189869       1.62644865       3.50064986       0.00016344      -0.00039888       0.00193233
Si       9.85864924       3.25257286       3.50062469       0.00010826       0.00008477       0.00229924
Si       9.85864984       6.50502502       3.50063562       0.00001162       0.00031142       0.00204661
Si       7.04189843       8.13125670       3.50063651       0.00016990       0.00007063       0.00206493
Si       7.04189856      11.38376178       3.50063644       0.00014795       0.00001434       0.00207989
Si       9.85864986      13.01000767       3.50063680      -0.00000131      -0.00007179       0.00207719
Si       9.85865001      16.26251553       3.50063673      -0.00001229       0.00004215       0.00207811
Si       7.04189881      17.88876218       3.50063631       0.00013066       0.00007286       0.00205248
Si       7.04189931      21.14126769       3.50063668       0.00012116       0.00000460       0.00204335
Si       9.85865005      22.76751368       3.50063622      -0.00003048       0.00000539       0.00210411
Si       9.85864978      26.02002339       3.50063714      -0.00001987      -0.00006471       0.00205582
Si       7.04189904      27.64627084       3.50063657       0.00014713       0.00002323       0.00204415
Si       7.04189877      30.89877571       3.50063633       0.00013047      -0.00002255       0.00204456
Si       9.85864948      32.52502206       3.50063705       0.00006240      -0.00002669       0.00205398
Si       9.85864887      35.77753051       3.50063685       0.00006513       0.00000752       0.00206240
Si       7.04189808      37.40377739       3.50063602       0.00018004      -0.00005464       0.00205789
Si       7.04189940      40.65628202       3.50063655       0.00013707       0.00005643       0.00204849
Si       9.85864996      42.28252898       3.50063643       0.00000775       0.00006726       0.00210951
Si       9.85864951      45.53503622       3.50063710       0.00005803       0.00011370       0.00204899
Si       7.04189911      47.16128643       3.50063582       0.00012548      -0.00000049       0.00210743
Si       7.04189871      50.41379081       3.50063633       0.00018312      -0.00020703       0.00205654
Si       9.85864984      52.04003759       3.50063726      -0.00000457      -0.00000038       0.00205683
Si       9.85864927      55.29254791       3.50063666       0.00003102      -0.00003970       0.00206174
Si       7.04189859      56.91879506       3.50063630       0.00014618      -0.00010841       0.00205996
Si       7.04189969      60.17129781       3.50063620       0.00006643       0.00006170       0.00205732
Si       9.85864956      61.79754165       3.50063592       0.00005317       0.00022003       0.00213465
Si       9.85864993      65.05005364       3.50063711       0.00001628      -0.00008964       0.00202350
Si       7.04189918      66.67630051       3.50063638       0.00017202       0.00000811       0.00205355
Si       7.04189883      69.92880651       3.50063658       0.00011570      -0.00017052       0.00205725
Si       9.85864987      71.55505209       3.50063649       0.00000543      -0.00015616       0.00208841
Si       9.85865047      74.80755790       3.50063678      -0.00002279       0.00022003       0.00203006
Si       7.04189819      76.43380730       3.50063585       0.00012478      -0.00003057       0.00209546
Si       7.04189902      79.68631147       3.50063668       0.00010125      -0.00008076       0.00204302
Si       9.85864962      81.31254524       3.50063484       0.00003013      -0.00043443       0.00210251
Si       9.85865035      84.56499575       3.50062475      -0.00004113      -0.00004465       0.00225466
Si       7.04189887      86.19112373       3.50065004       0.00016013       0.00016797       0.00195444
Si      12.67540588       1.62644950       3.50064993      -0.00001589      -0.00023720       0.00197570
Si      15.49216099       3.25257318       3.50062430       0.00006203       0.00001573       0.00231663
Si      15.49216194       6.50502496       3.50063533      -0.00004317       0.00030217       0.00204751
Si      12.67540520       8.13125514       3.50063700      -0.00003625       0.00003654       0.00205024
Si      12.67540556      11.38376403       3.50063631      -0.00002624       0.00000365       0.00208982
Si      15.49216117      13.01000701       3.50063638       0.00007342       0.00000866       0.00208117
Si      15.49216072      16.26251660       3.50063623       0.00008514       0.00001731       0.00210295
Si      12.67540584      17.88875997       3.50063645      -0.00004475      -0.00000129       0.00207851
Si      12.67540534      21.14127010       3.50063617      -0.00005204       0.00003447       0.00212429
Si      15.49216178      22.76751331       3.50063674      -0.00005249       0.00003785       0.00204041
Si      15.49216229      26.02002330       3.50063678      -0.00003075      -0.00003468       0.00206885
Si      12.67540467      27.64626744       3.50063630       0.00005490       0.00001264       0.00209698
Si      12.67540509      30.89877769       3.50063664      -0.00001125       0.00007195       0.00209635
Si      15.49216083      32.52502058       3.50063635       0.00003081       0.00001811       0.00205735
Si      15.49216167      35.77753045       3.50063646      -0.00001150       0.00000671       0.00208894
Si      12.67540566      37.40377599       3.50063617      -0.00001618      -0.00002917       0.00212707
Si      12.67540444      40.65628570       3.50063654       0.00005120      -0.00001197       0.00210437
Si      15.49216143      42.28252963       3.50063733      -0.00003950       0.00003142       0.00203529
Si      15.49216155      45.53503629       3.50063593      -0.00002279       0.00013273       0.00215913
Si      12.67540628      47.16128597       3.50063557      -0.00003100      -0.00011527       0.00213432
Si      12.67540500      50.41379100       3.50063693       0.00002985      -0.00006774       0.00206638
Si      15.49216084      52.04003814       3.50063594       0.00004732      -0.00012746       0.00213768
Si      15.49216278      55.29254704       3.50063599      -0.00006877       0.00003228       0.00210496
Si      12.67540574      56.91879158       3.50063675      -0.00004344      -0.00011051       0.00206667
Si      12.67540480      60.17129980       3.50063656       0.00007372       0.00016477       0.00208492
Si      15.49216159      61.79754089       3.50063603      -0.00004158       0.00010732       0.00212162
Si      15.49216167      65.05005478       3.50063648      -0.00001365      -0.00018258       0.00207674
Si      12.67540448      66.67629672       3.50063634       0.00006241      -0.00011062       0.00207182
Si      12.67540496      69.92880864       3.50063670       0.00004980      -0.00010463       0.00204116
Si      15.49216168      71.55505089       3.50063692      -0.00003983      -0.00017793       0.00202104
Si      15.49216081      74.80755891       3.50063629       0.00011801       0.00022856       0.00209476
Si      12.67540565      76.43380477       3.50063617      -0.00001779      -0.00017702       0.00214260
Si      12.67540601      79.68631208       3.50063679      -0.00005188       0.00004721       0.00206328
Si      15.49216131      81.31254571       3.50063540      -0.00002357      -0.00045509       0.00204344
Si      15.49216154      84.56499275       3.50062481      -0.00003816      -0.00002636       0.00218337
Si      12.67540464      86.19111580       3.50065006       0.00003645       0.00045479       0.00196850
Si      18.30891740       1.62644936       3.50065032      -0.00002738      -0.00021431       0.00194393
Si      21.12567484       3.25257238       3.50062481      -0.00000337       0.00008296       0.00227967
Si      21.12567499       6.50502447       3.50063539       0.00000978       0.00036428       0.00204909
Si      18.30891680       8.13125519       3.50063721       0.00012196       0.00000934       0.00205759
Si      18.30891803      11.38376370       3.50063622      -0.00002988       0.00003849       0.00209489
Si      21.12567537      13.01000677       3.50063651      -0.00001774       0.00003563       0.00208639
Si      21.12567433      16.26251655       3.50063633       0.00002080       0.00002791       0.00210104
Si      18.30891827      17.88875980       3.50063653      -0.00003185       0.00000480       0.00208149
Si      18.30891605      21.14127065       3.50063677       0.00010936      -0.00004092       0.00208071
Si      21.12567529      22.76751217       3.50063599      -0.00002156       0.00015205       0.00212204
Si      21.12567510      26.02002441       3.50063656      -0.00000984      -0.00009884       0.00208392
Si      18.30891799      27.64626792       3.50063636      -0.00003651      -0.00012488       0.00209702
Si      18.30891758      30.89877710       3.50063703      -0.00004425       0.00014430       0.00204897
Si      21.12567541      32.52502101       3.50063644      -0.00000400       0.00002372       0.00206020
Si      21.12567514      35.77753042       3.50063672       0.00000552       0.00001051       0.00207108
Si      18.30891709      37.40377638       3.50063640      -0.00003245      -0.00016492       0.00208888
Si      18.30891719      40.65628492       3.50063662       0.00001932       0.00007298       0.00208240
Si      21.12567505      42.28252965       3.50063662       0.00002915      -0.00000035       0.00203310
Si      21.12567470      45.53503972       3.50063546       0.00002387      -0.00004196       0.00219047
Si      18.30891773      47.16128200       3.50063597      -0.00002818       0.00004219       0.00210916
Si      18.30891824      50.41379120       3.50063698      -0.00008537      -0.00009447       0.00209197
Si      21.12567553      52.04003846       3.50063629      -0.00000721      -0.00007105       0.00210084
Si      21.12567240      55.29254578       3.50063691       0.00011907       0.00015746       0.00205794
Si      18.30891650      56.91879202       3.50063651       0.00009926      -0.00011384       0.00211609
Si      18.30891893      60.17130001       3.50063641      -0.00007267       0.00017276       0.00206757
Si      21.12567427      61.79754158       3.50063664       0.00000069       0.00020450       0.00210584
Si      21.12567541      65.05005436       3.50063731      -0.00004778      -0.00004879       0.00201272
Si      18.30891627      66.67629656       3.50063641       0.00011238      -0.00010070       0.00206260
Si      18.30891643      69.92880791       3.50063658       0.00012395      -0.00009847       0.00208101
Si      21.12567667      71.55505234       3.50063618      -0.00014792      -0.00020410       0.00214299
Si      21.12567532      74.80755809       3.50063575      -0.00001417       0.00026819       0.00212772
Si      18.30891845      76.43380441       3.50063652      -0.00006683      -0.00011968       0.00208326
Si      18.30891827      79.68631177       3.50063715      -0.00000665       0.00004789       0.00206357
Si      21.12567551      81.31254487       3.50063482       0.00004172      -0.00041507       0.00206610
Si      21.12567512      84.56499726       3.50062464       0.00004528      -0.00005758       0.00228924
Si      18.30891862      86.19111590       3.50065039      -0.00002764       0.00044661       0.00197964
Si      23.94243174       1.62645133       3.50064976      -0.00002340      -0.00042764       0.00196603
Si      26.75918743       3.25257238       3.50062475       0.00009003       0.00005470       0.00229398
Si      26.75918830       6.50502421       3.50063489       0.00000983       0.00037239       0.00209639
Si      23.94243046       8.13125552       3.50063731      -0.00001749       0.00004170       0.00206628
Si      23.94242928      11.38376412       3.50063682       0.00012828      -0.00000222       0.00206779
Si      26.75918670      13.01000680       3.50063661       0.00009762       0.00001471       0.00209088
Si      26.75918865      16.26251742       3.50063661      -0.00014382      -0.00004899       0.00209679
Si      23.94243074      17.88876067       3.50063642       0.00000027      -0.00009329       0.00209238
Si      23.94243099      21.14126979       3.50063623      -0.00004863       0.00004758       0.00208733
Si      26.75918680      22.76751266       3.50063704       0.00001042       0.00009617       0.00204377
Si      26.75918705      26.02002362       3.50063699       0.00008347      -0.00001570       0.00198755
Si      23.94243116      27.64626745       3.50063652       0.00001766      -0.00002293       0.00209947
Si      23.94243140      30.89877636       3.50063622      -0.00003660       0.00011413       0.00209161
Si      26.75918795      32.52502031       3.50063729      -0.00001965       0.00001444       0.00202514
Si      26.75918816      35.77753191       3.50063607      -0.00000665       0.00000175       0.00210301
Si      23.94243198      37.40377582       3.50063661      -0.00002945      -0.00002135       0.00208137
Si      23.94243119      40.65628342       3.50063595      -0.00007731       0.00003414       0.00214663
Si      26.75918772      42.28252966       3.50063611       0.00002527       0.00003265       0.00213437
Si      26.75918818      45.53503766       3.50063623       0.00002391       0.00004613       0.00208919
Si      23.94243054      47.16128660       3.50063585       0.00002718      -0.00013994       0.00214596
Si      23.94243083      50.41378997       3.50063715       0.00004332      -0.00001561       0.00209282
Si      26.75918870      52.04003902       3.50063644      -0.00010975      -0.00007500       0.00210268
Si      26.75918851      55.29254771       3.50063595      -0.00000884      -0.00008594       0.00211041
Si      23.94243276      56.91879209       3.50063745      -0.00003542      -0.00008375       0.00201495
Si      23.94243112      60.17130024       3.50063679      -0.00005672       0.00010128       0.00202533
Si      26.75918602      61.79754244       3.50063618       0.00009798       0.00014187       0.00211842
Si      26.75918628      65.05004954       3.50063700       0.00013675       0.00020925       0.00200855
Si      23.94242983      66.67629670       3.50063589       0.00001240      -0.00014979       0.00214870
Si      23.94242992      69.92880697       3.50063593       0.00000995      -0.00010881       0.00211353
Si      26.75918802      71.55505207       3.50063656       0.00002294      -0.00015605       0.00208646
Si      26.75918776      74.80755902       3.50063733       0.00002981       0.00016378       0.00200914
Si      23.94243012      76.43380461       3.50063634       0.00004253      -0.00015974       0.00209383
Si      23.94243069      79.68631226       3.50063724      -0.00003328       0.00001907       0.00202254
Si      26.75918790      81.31254570       3.50063544      -0.00001780      -0.00046897       0.00211090
Si      26.75918756      84.56499464       3.50062409      -0.00000846      -0.00001610       0.00226511
Si      23.94243208      86.19111797       3.50065109      -0.00003598       0.00036075       0.00192327
Si      29.57594403       1.62644921       3.50065065      -0.00003380      -0.00024429       0.00188284
Si      32.39270093       3.25257303       3.50062442       0.00001000       0.00002480       0.00231528
Si      32.39270271       6.50502511       3.50063548      -0.00008418       0.00029469       0.00204627
Si      29.57594439       8.13125530       3.50063689      -0.00003965       0.00000497       0.00210237
Si      29.57594565      11.38376410       3.50063677      -0.00008808       0.00001503       0.00208108
Si      32.39270086      13.01000764       3.50063650       0.00003632      -0.00006766       0.00207672
Si      32.39270274      16.26251662       3.50063707      -0.00014166       0.00001587       0.00205160
Si      29.57594546      17.88876017       3.50063617      -0.00008714      -0.00000308       0.00211803
Si      29.57594490      21.14127112       3.50063626      -0.00005652      -0.00000338       0.00212943
Si      32.39270098      22.76751260       3.50063686       0.00006196       0.00005446       0.00205125
Si      32.39270290      26.02002429       3.50063690      -0.00013870      -0.00006539       0.00206545
Si      29.57594523      27.64626814       3.50063670      -0.00012023      -0.00015211       0.00205196
Si      29.57594506      30.89877561       3.50063651      -0.00010046       0.00013642       0.00209351
Si      32.39270092      32.52502068       3.50063708       0.00008974       0.00003015       0.00204405
Si      32.39270312      35.77753136       3.50063626      -0.00015304       0.00002655       0.00211763
Si      29.57594317      37.40377430       3.50063665       0.00004735      -0.00000385       0.00208982
Si      29.57594508      40.65628511       3.50063688      -0.00009578      -0.00000068       0.00206124
Si      32.39270216      42.28252831       3.50063674      -0.00015298       0.00015856       0.00208244
Si      32.39270098      45.53503352       3.50063648       0.00006942       0.00014790       0.00207602
Si      29.57594231      47.16128326       3.50063509       0.00009615      -0.00004097       0.00220055
Si      29.57594611      50.41379125       3.50063718      -0.00012622      -0.00010784       0.00207128
Si      32.39270128      52.04003820       3.50063670       0.00001740      -0.00003590       0.00212573
Si      32.39270346      55.29254622       3.50063635      -0.00010851       0.00011492       0.00210159
Si      29.57594288      56.91879069       3.50063690       0.00012706      -0.00008519       0.00208461
Si      29.57594390      60.17130120       3.50063616       0.00009057      -0.00000621       0.00211576
Si      32.39270209      61.79754198       3.50063599      -0.00001864       0.00021685       0.00213665
Si      32.39270100      65.05005364       3.50063710       0.00003739      -0.00006418       0.00205621
Si      29.57594547      66.67629759       3.50063676      -0.00014600      -0.00014105       0.00209138
Si      29.57594546      69.92880672       3.50063712      -0.00013219      -0.00012450       0.00203237
Si      32.39270107      71.55505152       3.50063663       0.00003933      -0.00019062       0.00208136
Si      32.39270178      74.80755933       3.50063665       0.00002147       0.00025922       0.00207672
Si      29.57594437      76.43380485       3.50063664      -0.00011217      -0.00016043       0.00210386
Si      29.57594386      79.68631214       3.50063778       0.00006168       0.00001504       0.00200314
Si      32.39270150      81.31254522       3.50063531       0.00001784      -0.00049184       0.00210699
Si      32.39270246      84.56499565       3.50062479      -0.00012302       0.00000457       0.00223561
Si      29.57594311      86.19111586       3.50064960       0.00010604       0.00050495       0.00202089
Si      35.20945975       1.62644907       3.50065077      -0.00020401      -0.00023867       0.00187652
Si      38.02621263       3.25257345       3.50062421       0.00021783      -0.00003082       0.00230469
Si      38.02621308       6.50502464       3.50063536      -0.00019324       0.00039557       0.00206902
Si      35.20945811       8.13125530       3.50063697      -0.00002907       0.00003477       0.00202902
Si      35.20945805      11.38376325       3.50063599      -0.00000490       0.00002800       0.00213623
Si      38.02621113      13.01000604       3.50063708       0.00018334       0.00006635       0.00205681
Si      38.02621061      16.26251739       3.50063699       0.00021558      -0.00007120       0.00205950
Si      35.20945740      17.88876047       3.50063571       0.00004848      -0.00002044       0.00213098
Si      35.20945786      21.14126849       3.50063548       0.00001082       0.00014454       0.00217081
Si      38.02621169      22.76751397       3.50063690       0.00019264       0.00000424       0.00202471
Si      38.02621186      26.02002401       3.50063668       0.00019463      -0.00010633       0.00206156
Si      35.20945755      27.64626855       3.50063597       0.00003603      -0.00012682       0.00212559
Si      35.20945743      30.89877653       3.50063604       0.00006207       0.00014530       0.00213146
Si      38.02621209      32.52502007       3.50063681       0.00020506       0.00002927       0.00206107
Si      38.02621203      35.77753126       3.50063658       0.00020836      -0.00001132       0.00210541
Si      35.20945770      37.40377676       3.50063536       0.00004177      -0.00017345       0.00214301
Si      35.20945735      40.65628367       3.50063603       0.00008994       0.00010949       0.00217158
Si      38.02621308      42.28252863       3.50063719      -0.00004510       0.00008300       0.00205326
Si      38.02621315      45.53503446       3.50063657      -0.00018288       0.00015006       0.00206886
Si      35.20945861      47.16128646       3.50063576      -0.00007540      -0.00018452       0.00213807
Si      35.20945693      50.41379272       3.50063584       0.00008087      -0.00013325       0.00216872
Si      38.02621099      52.04003751       3.50063790       0.00020170      -0.00003867       0.00199741
Si      38.02621307      55.29254740       3.50063631      -0.00007595      -0.00011048       0.00205481
Si      35.20945873      56.91879365       3.50063636       0.00005098      -0.00009892       0.00211348
Si      35.20945894      60.17130169       3.50063533       0.00000576       0.00004907       0.00214453
Si      38.02621060      61.79754155       3.50063647       0.00018984       0.00018811       0.00207142
Si      38.02621285      65.05005393       3.50063573      -0.00019872      -0.00004565       0.00213963
Si      35.20945902      66.67629771       3.50063625      -0.00002097      -0.00014488       0.00209186
Si      35.20945750      69.92880836       3.50063602       0.00006486      -0.00012268       0.00212732
Si      38.02621189      71.55505088       3.50063634       0.00019957      -0.00018645       0.00207112
Si      38.02621186      74.80755849       3.50063684       0.00017969       0.00023261       0.00206925
Si      35.20945666      76.43380410       3.50063618       0.00000216       0.00000267       0.00213030
Si      35.20945911      79.68631039       3.50063743      -0.00009023       0.00010977       0.00197910
Si      38.02621232      81.31254555       3.50063486       0.00007128      -0.00047469       0.00210777
Si      38.02621356      84.56499682       3.50062532      -0.00016745      -0.00004103       0.00220290
Si      35.20945839      86.19111762       3.50064914       0.00002880       0.00045103       0.00201496
Si      40.84296969       1.62644905       3.50065089       0.00013218      -0.00023155       0.00188630
Si      43.65972076       3.25257483       3.50062423      -0.00036697       0.00005970       0.00227545
Si      43.65971934       6.50502274       3.50063526      -0.00004543       0.00029357       0.00206400
Si      40.84296988       8.13125563       3.50063763       0.00004502       0.00008575       0.00202357
Si      40.84296959      11.38376255       3.50063673       0.00004382       0.00008870       0.00207112
Si      43.65972123      13.01000925       3.50063672      -0.00036544       0.00006044       0.00200667
Si      43.65971881      16.26251465       3.50063635      -0.00006294      -0.00004870       0.00203191
Si      40.84297037      17.88876122       3.50063657      -0.00013290      -0.00007496       0.00210495
Si      40.84297128      21.14126943       3.50063646      -0.00015591       0.00005804       0.00207798
Si      43.65971906      22.76751527       3.50063662      -0.00010448       0.00007560       0.00199813
Si      43.65972082      26.02002184       3.50063687      -0.00034624      -0.00002441       0.00199878
Si      40.84296982      27.64626817       3.50063713       0.00005584      -0.00012172       0.00206646
Si      40.84297176      30.89877609       3.50063690      -0.00010097       0.00013948       0.00209643
Si      43.65971961      32.52502351       3.50063694      -0.00032516       0.00000630       0.00195993
Si      43.65972116      35.77753069       3.50063742      -0.00031931      -0.00006315       0.00195395
Si      40.84297142      37.40377680       3.50063633      -0.00012313      -0.00017978       0.00209616
Si      40.84297044      40.65628382       3.50063700      -0.00005156       0.00003338       0.00205115
Si      43.65971831      42.28253235       3.50063727       0.00002367      -0.00005831       0.00199365
Si      43.65972084      45.53503714       3.50063669      -0.00027571      -0.00011130       0.00204788
Si      40.84297128      47.16128439       3.50063630      -0.00005115      -0.00006548       0.00204852
Si      40.84297114      50.41379018       3.50063751      -0.00011654      -0.00000493       0.00205347
Si      43.65971961      52.04003891       3.50063662      -0.00030985       0.00005749       0.00202408
Si      43.65972074      55.29254595       3.50063669      -0.00030969      -0.00004839       0.00203817
Si      40.84296942      56.91879242       3.50063708       0.00010107      -0.00010475       0.00205482
Si      40.84297119      60.17129782       3.50063712      -0.00013119       0.00011421       0.00202610
Si      43.65971934      61.79754299       3.50063645      -0.00008627       0.00025977       0.00201263
Si      43.65972042      65.05005198       3.50063620      -0.00023939       0.00007755       0.00209654
Si      40.84297039      66.67629514       3.50063671      -0.00001188       0.00015603       0.00208887
Si      40.84297053      69.92880693       3.50063570      -0.00013224      -0.00017134       0.00213058
Si      43.65971888      71.55505409       3.50063645      -0.00001816      -0.00004248       0.00204607
Si      43.65972103      74.80755778       3.50063692      -0.00029613       0.00005293       0.00200460