2184
Lattice="53.739828773804085 0.0 0.0 0.0 93.08011382628054 0.0 0.0 0.0 100.0" Properties=species:S:1:pos:R:3:forces:R:3 energy=-746675.6146697998 free_energy=-746675.6146697998 pbc="T T T"
Si       0.36922395      81.61609316       3.50064423      -0.00024239       0.00007632       0.00205194
Si       0.66449382      84.85512954       3.50064381      -0.00007641       0.00007597       0.00195031
Si       1.25504491      91.33310558       3.50065827      -0.00029853       0.00026402       0.00174442
Si       0.07399583      16.32319802       3.50064459      -0.00021643       0.00010552       0.00205614
Si       0.66451629      22.80136897       3.50064535      -0.00022676      -0.00003884       0.00197722
Si       0.95978355      26.04041078       3.50064309      -0.00017075       0.00010086       0.00204231
Si       1.55034257      32.51858454       3.50064476      -0.00013314      -0.00010717       0.00199699
Si       1.84561177      35.75762693       3.50064259      -0.00028588       0.00001534       0.00209459
Si       2.43616692      42.23582287       3.50064788      -0.00020795      -0.00004094       0.00194304
Si       2.73135466      45.47487478       3.50062704       0.00015874      -0.00008423       0.00226065
Si       0.07395520      47.35012377       3.50064492      -0.00022627      -0.00013181       0.00202092
Si       0.36922475      50.58916697       3.50064357      -0.00010943      -0.00008591       0.00203057
Si       3.32189999      51.95301189       3.50063093       0.00001632      -0.00003901       0.00214858
Si       3.61717411      55.19205718       3.50063077      -0.00005241       0.00015159       0.00215275
Si       0.95978425      57.06733888       3.50064530      -0.00014513      -0.00006708       0.00191565
Si       1.25505114      60.30638211       3.50064288      -0.00008639      -0.00004880       0.00209026
Si       4.20772666      61.67022648       3.50063135       0.00007714      -0.00007673       0.00209570
Si       4.50299971      64.90927342       3.50063170       0.00011032       0.00032298       0.00206402
Si       1.84561061      66.78455331       3.50064557      -0.00007800      -0.00019081       0.00195113
Si       2.14087704      70.02359375       3.50064287      -0.00000681       0.00044098       0.00202579
Si       5.09355218      71.38744421       3.50063199       0.00010826      -0.00032253       0.00206248
Si       5.38882341      74.62648938       3.50063229       0.00017059       0.00019018       0.00206654
Si       2.73143506      76.50179382       3.50064720      -0.00022669       0.00004351       0.00204160
Si       3.02662469      79.74084233       3.50062634      -0.00002009      -0.00030428       0.00219937
Si       5.97933845      81.10464945       3.50063536       0.00024366       0.00021310       0.00219338
Si       6.27461126      84.34371589       3.50063780       0.00001795       0.00031440       0.00190765
Si       3.61716586      86.21896617       3.50062999       0.00010600      -0.00053497       0.00206827
Si       3.91243970      89.45795894       3.50061702      -0.00005086      -0.00048330       0.00246856
Si       6.86515033      90.82165768       3.50064940       0.00042256       0.00072606       0.00199512
Si       1.55035043       1.49185762       3.50065594      -0.00014451      -0.00048982       0.00197103
Si       4.50301495       2.85558107       3.50061827       0.00025592      -0.00010257       0.00234686
Si       4.79829018       6.09456688       3.50063030       0.00012896       0.00047866       0.00208103
Si       2.14090038       7.96983455       3.50064483      -0.00020242       0.00009815       0.00204888
Si       2.43615756      11.20888338       3.50064524      -0.00011315       0.00001819       0.00199349
Si       5.38884233      12.57272399       3.50063196       0.00002548      -0.00008553       0.00214568
Si       5.68407444      15.81178693       3.50063613       0.00016460       0.00007072       0.00203002
Si       3.02664581      17.68705537       3.50062835       0.00010457      -0.00022456       0.00219701
Si       3.32190443      20.92609308       3.50063061       0.00014194       0.00008709       0.00213516
Si       6.27462447      22.28992486       3.50063697       0.00017019      -0.00000889       0.00201925
Si       6.56990045      25.52899842       3.50063660       0.00013471      -0.00007218       0.00206638
Si       3.91245768      27.40425940       3.50063138       0.00008845      -0.00010046       0.00211592
Si       4.20773083      30.64330530       3.50063160       0.00008259       0.00015990       0.00211471
Si       7.16045121      32.00713977       3.50063632       0.00014380       0.00003004       0.00206456
Si       7.45572621      35.24621528       3.50063664       0.00023982      -0.00014949       0.00208000
Si       4.79828312      37.12147598       3.50063139       0.00015495      -0.00010608       0.00210221
Si       5.09355544      40.36052187       3.50063122       0.00001552       0.00019536       0.00214189
Si       8.04627768      41.72435387       3.50063661       0.00014947       0.00011810       0.00208360
Si       8.34154872      44.96343131       3.50063762      -0.00002834      -0.00004808       0.00203711
Si       5.68407049      46.83868359       3.50063655       0.00018656      -0.00006674       0.00200708
Si       5.97934263      50.07775568       3.50063704       0.00009263      -0.00009419       0.00203142
Si       8.93209817      51.44156723       3.50063727       0.00008537      -0.00011958       0.00206259
Si       9.22737448      54.68064674       3.50063758       0.00009238      -0.00003593       0.00205299
Si       6.56989384      56.55588926       3.50063595       0.00012260       0.00026150       0.00210671
Si       6.86516949      59.79496721       3.50063639       0.00010313       0.00008606       0.00208804
Si       9.81792487      61.15877943       3.50063760       0.00008857       0.00016238       0.00207284
Si      10.11320032      64.39785981       3.50063703       0.00012785       0.00008128       0.00206223
Si       7.45571915      66.27310941       3.50063580       0.00016154       0.00017033       0.00210827
Si       7.75099636      69.51217936       3.50063686       0.00012145       0.00012308       0.00206265
Si      10.70375174      70.87599718       3.50063612       0.00006196      -0.00014386       0.00213516
Si      10.99902871      74.11508081       3.50063777      -0.00002002      -0.00021056       0.00201514
Si       8.34154688      75.99031751       3.50063605       0.00014765       0.00015188       0.00208702
Si       8.63681618      79.22940269       3.50063790       0.00009570      -0.00031531       0.00200214
Si      11.58957789      80.59321328       3.50063648       0.00006510      -0.00009548       0.00217992
Si      11.88485568      83.83228150       3.50063678       0.00008096       0.00011254       0.00203935
Si       9.22736886      85.70751908       3.50063647      -0.00019100      -0.00027469       0.00199600
Si       9.52264158      88.94653337       3.50062445       0.00006213       0.00025013       0.00228326
Si      12.47539848      90.31022771       3.50065146       0.00002942      -0.00003045       0.00199727
Si       7.16046680       0.98044137       3.50065315       0.00014341      -0.00019421       0.00174111
Si      10.11321559       2.34413643       3.50062424      -0.00015128       0.00004969       0.00229913
Si      10.40849330       5.58315480       3.50063599       0.00001893       0.00032288       0.00204105
Si       7.75100890       7.45838787       3.50063715       0.00015439       0.00007433       0.00205460
Si       8.04628497      10.69746151       3.50063666       0.00014018      -0.00003344       0.00203462
Si      10.99904160      12.06127549       3.50063709       0.00000059       0.00000119       0.00207763
Si      11.29431616      15.30035360       3.50063659       0.00003726       0.00000914       0.00210510
Si       8.63683026      17.17559858       3.50063727      -0.00001616       0.00003112       0.00207767
Si       8.93210619      20.41467755       3.50063658       0.00003504      -0.00003301       0.00209287
Si      11.88486645      21.77848992       3.50063688       0.00005323      -0.00004073       0.00210042
Si      12.18014417      25.01756869       3.50063701      -0.00000300      -0.00008079       0.00203708
Si       9.52265701      26.89281134       3.50063738      -0.00000874       0.00011306       0.00204845
Si       9.81793304      30.13189149       3.50063714      -0.00003671      -0.00001689       0.00206799
Si      12.77069380      31.49570444       3.50063649      -0.00002731      -0.00005647       0.00207669
Si      13.06597173      34.73478111       3.50063724      -0.00011058       0.00019046       0.00209118
Si      10.40848310      36.61002985       3.50063758       0.00002505      -0.00025976       0.00205471
Si      10.70375960      39.84910700       3.50063556       0.00007191       0.00006211       0.00215789
Si      13.65652022      41.21291962       3.50063642       0.00011855      -0.00018558       0.00209783
Si      13.95179603      44.45199672       3.50063690       0.00005303       0.00018274       0.00206858
Si      11.29430817      46.32724401       3.50063606       0.00016785      -0.00007480       0.00216403
Si      11.58958490      49.56631804       3.50063735       0.00008153       0.00012592       0.00203839
Si      14.54234730      50.93013469       3.50063694       0.00006651       0.00004175       0.00208513
Si      14.83762326      54.16921258       3.50063625       0.00001241      -0.00008441       0.00210051
Si      12.18013664      56.04445630       3.50063613      -0.00000543      -0.00003418       0.00217097
Si      12.47541134      59.28353769       3.50063666       0.00005642       0.00007459       0.00208687
Si      15.42817396      60.64734634       3.50063704      -0.00004446       0.00020713       0.00205679
Si      15.72345195      63.88642545       3.50063641      -0.00013939       0.00003038       0.00210534
Si      13.06596275      65.76167174       3.50063689      -0.00000842      -0.00008267       0.00207351
Si      13.36123800      69.00074940       3.50063665       0.00005813       0.00004900       0.00208239
Si      16.31400136      70.36457112       3.50063703      -0.00008191      -0.00025584       0.00203538
Si      16.60927544      73.60363998       3.50063680       0.00011589      -0.00005151       0.00209665
Si      13.95178905      75.47888347       3.50063568       0.00011483       0.00013292       0.00219413
Si      14.24706664      78.71796917       3.50063803       0.00007003      -0.00006416       0.00197315
Si      17.19982921      80.08177793       3.50063620      -0.00002589      -0.00018449       0.00216667
Si      17.49510559      83.32085859       3.50063698      -0.00005843      -0.00029127       0.00201437
Si      14.83761830      85.19609208       3.50063680      -0.00002589      -0.00014976       0.00207449
Si      15.13292921      88.43513035       3.50063006      -0.00032412       0.00006616       0.00208972
Si      18.08565030      89.79889575       3.50062619       0.00008043      -0.00008730       0.00209799
Si      18.38094290      93.03785657       3.50064826       0.00006333       0.00056011       0.00209919
Si      12.77069704       0.46900999       3.50064856       0.00023840      -0.00011419       0.00205594
Si      15.72343263       1.83277314       3.50063955       0.00019334      -0.00018861       0.00219761
Si      16.01873773       5.07176848       3.50062966      -0.00004751       0.00011552       0.00222050
Si      13.36124742       6.94695769       3.50063709      -0.00003142       0.00010007       0.00203649
Si      13.65652793      10.18603177       3.50063730       0.00006076      -0.00001320       0.00205889
Si      16.60929013      11.54984191       3.50063715      -0.00004781      -0.00005551       0.00206368
Si      16.90456559      14.78891864       3.50063672       0.00003924       0.00011530       0.00209035
Si      14.24707806      16.66416508       3.50063713       0.00004334      -0.00001652       0.00209041
Si      14.54235530      19.90324291       3.50063648       0.00002348       0.00008534       0.00212403
Si      17.49511701      21.26705700       3.50063649      -0.00002050      -0.00016414       0.00211892
Si      17.79039227      24.50613362       3.50063696       0.00002187       0.00002321       0.00208963
Si      15.13290454      26.38137857       3.50063662       0.00000932       0.00010692       0.00207815
Si      15.42818078      29.62045836       3.50063658       0.00006812      -0.00000578       0.00212864
Si      18.38094485      30.98427033       3.50063659       0.00003244      -0.00006559       0.00209547
Si      18.67621836      34.22335105       3.50063756       0.00007335      -0.00015476       0.00203659
Si      16.01873219      36.09859513       3.50063613       0.00000028       0.00003817       0.00214696
Si      16.31400916      39.33767322       3.50063711      -0.00008210       0.00006048       0.00205888
Si      19.26677179      40.70148487       3.50063684       0.00000975       0.00000113       0.00215242
Si      19.56204735      43.94056213       3.50063638      -0.00008424      -0.00003248       0.00213607
Si      16.90455971      45.81581019       3.50063700      -0.00010426      -0.00008932       0.00208914
Si      17.19983477      49.05488738       3.50063694       0.00011483       0.00016017       0.00204345
Si      20.15259874      50.41869899       3.50063643       0.00002267       0.00001521       0.00209164
Si      20.44787330      53.65778118       3.50063659      -0.00001877      -0.00018597       0.00212451
Si      17.79038567      55.53302545       3.50063715      -0.00003296      -0.00014157       0.00209329
Si      18.08566241      58.77210566       3.50063740      -0.00006741      -0.00016803       0.00205813
Si      21.03842548      60.13591287       3.50063667       0.00002761       0.00011992       0.00207214
Si      21.33369974      63.37499228       3.50063764       0.00000506       0.00000415       0.00205621
Si      18.67621392      65.25024434       3.50063585      -0.00006635      -0.00032007       0.00214778
Si      18.97148903      68.48931709       3.50063639      -0.00002325      -0.00006330       0.00211694
Si      21.92425313      69.85313012       3.50063787      -0.00010635       0.00006045       0.00203665
Si      22.21953063      73.09220973       3.50063683      -0.00004108       0.00004068       0.00203877
Si      19.56203860      74.96745542       3.50063728       0.00005305       0.00022239       0.00209080
Si      19.85731634      78.20653700       3.50063514      -0.00010493      -0.00003359       0.00221291
Si      22.81007772      79.57034549       3.50063479       0.00008502      -0.00015989       0.00223894
Si      23.10535130      82.80942246       3.50063738       0.00024923      -0.00022258       0.00210329
Si      20.44786704      84.68466670       3.50063645       0.00004923      -0.00033683       0.00215944
Si      20.74314109      87.92372966       3.50063547      -0.00002701      -0.00011458       0.00192133
Si      23.69589774      89.28745530       3.50062675      -0.00003087       0.00049470       0.00220604
Si      23.99119334      92.52642632       3.50064993      -0.00007292       0.00038465       0.00198763
Si      21.33370168       1.32140115       3.50064909       0.00006802      -0.00042146       0.00210612
Si      21.62899611       4.56037078       3.50062548      -0.00000108       0.00002799       0.00226656
Si      18.97149985       6.43552694       3.50063501      -0.00017056       0.00014716       0.00206566
Si      19.26677749       9.67459610       3.50063734       0.00002968       0.00010398       0.00205852
Si      22.21954210      11.03840761       3.50063771      -0.00011403       0.00003635       0.00202093
Si      22.51481647      14.27748684       3.50063605      -0.00003597       0.00000531       0.00215108
Si      19.85732956      16.15272987       3.50063707      -0.00000145       0.00005682       0.00209617
Si      20.15260591      19.39180948       3.50063705      -0.00003374       0.00007399       0.00207405
Si      23.10536731      20.75562280       3.50063642      -0.00004010      -0.00007952       0.00212453
Si      23.40064450      23.99470120       3.50063702      -0.00002512       0.00000122       0.00207265
Si      20.74315709      25.86994845       3.50063706       0.00000599      -0.00011536       0.00206639
Si      21.03843208      29.10902590       3.50063637      -0.00000497       0.00001778       0.00209633
Si      23.99119283      30.47283758       3.50063709      -0.00000946      -0.00008580       0.00207549
Si      24.28647103      33.71191347       3.50063701       0.00007047       0.00013071       0.00206480
Si      21.62898295      35.58716066       3.50063690      -0.00000916       0.00007460       0.00211591
Si      21.92425833      38.82624256       3.50063693      -0.00002057      -0.00012927       0.00209270
Si      24.87702020      40.19005576       3.50063674       0.00007404      -0.00011936       0.00208358
Si      25.17229856      43.42912937       3.50063696       0.00000399      -0.00003011       0.00206111
Si      22.51480832      45.30437383       3.50063721       0.00010972       0.00021885       0.00205734
Si      22.81008520      48.54345372       3.50063618      -0.00006525       0.00021368       0.00214353
Si      25.76284799      49.90726956       3.50063619      -0.00009265      -0.00009471       0.00217676
Si      26.05812532      53.14634326       3.50063657       0.00002013      -0.00003043       0.00209417
Si      23.40063628      55.02158984       3.50063615      -0.00003943      -0.00010582       0.00213912
Si      23.69591356      58.26067145       3.50063628      -0.00000374       0.00017692       0.00212439
Si      26.64867337      59.62447957       3.50063579      -0.00000849       0.00005461       0.00212105
Si      26.94395067      62.86355696       3.50063709       0.00011506       0.00011246       0.00210040
Si      24.28646254      64.73880825       3.50063703      -0.00000791      -0.00014316       0.00200302
Si      24.58174067      67.97788551       3.50063615      -0.00006380      -0.00019431       0.00222233
Si      27.53450166      69.34169711       3.50063683       0.00010418      -0.00015120       0.00206935
Si      27.82977873      72.58077517       3.50063671      -0.00009799       0.00036936       0.00209290
Si      25.17228931      74.45601573       3.50063591       0.00003202      -0.00004976       0.00213251
Si      25.46756517      77.69509458       3.50063615       0.00012496       0.00040739       0.00216979
Si      28.42032947      79.05890966       3.50063744      -0.00022145       0.00018299       0.00201924
Si      28.71560666      82.29798988       3.50063675      -0.00021778      -0.00004758       0.00209417
Si      26.05811578      84.17323711       3.50063651       0.00009864      -0.00057610       0.00209057
Si      26.35339351      87.41230674       3.50063554       0.00007369      -0.00075842       0.00199501
Si      29.30614782      88.77602191       3.50062438      -0.00000268       0.00009888       0.00227138
Si      29.60144371      92.01499859       3.50065151      -0.00002441       0.00024825       0.00191869
Si      26.94395209       0.80996808       3.50065020       0.00000009      -0.00042782       0.00198738
Si      27.23924733       4.04893856       3.50062587       0.00000898       0.00003087       0.00220996
Si      24.58175269       5.92409545       3.50063509      -0.00004382       0.00021661       0.00203181
Si      24.87702945       9.16316417       3.50063713       0.00000700       0.00008791       0.00208363
Si      27.82979057      10.52697407       3.50063721       0.00011270       0.00001219       0.00207193
Si      28.12506532      13.76605272       3.50063670       0.00009459       0.00002714       0.00210575
Si      25.46757701      15.64129784       3.50063687       0.00011433      -0.00000979       0.00209754
Si      25.76285637      18.88037552       3.50063668       0.00003555       0.00012769       0.00209727
Si      28.71561732      20.24418892       3.50063686      -0.00006873      -0.00006516       0.00211995
Si      29.01089418      23.48326817       3.50063710      -0.00001409      -0.00002094       0.00203465
Si      26.35340519      25.35851441       3.50063702       0.00001520      -0.00007893       0.00207705
Si      26.64868135      28.59759062       3.50063684       0.00006453       0.00010896       0.00209280
Si      29.60144242      29.96140411       3.50063662       0.00010407      -0.00002283       0.00212221
Si      29.89672165      33.20047994       3.50063637      -0.00000638       0.00013749       0.00214335
Si      27.23923057      35.07572794       3.50063690       0.00013033      -0.00010766       0.00207396
Si      27.53450883      38.31480717       3.50063684      -0.00011198      -0.00007799       0.00204005
Si      30.48726930      39.67861710       3.50063666       0.00018129       0.00012583       0.00209570
Si      30.78254614      42.91769507       3.50063717       0.00003315       0.00022492       0.00205752
Si      28.12505940      44.79294409       3.50063626       0.00008059      -0.00012287       0.00216076
Si      28.42033620      48.03202100       3.50063639      -0.00004187       0.00013798       0.00214798
Si      31.37309617      49.39583392       3.50063693       0.00003528       0.00008238       0.00213971
Si      31.66837449      52.63491229       3.50063637      -0.00009785      -0.00008393       0.00211139
Si      29.01088529      54.51015748       3.50063631       0.00011447      -0.00016660       0.00211685
Si      29.30616187      57.74923600       3.50063729       0.00004897      -0.00001287       0.00207388
Si      32.25892227      59.11304684       3.50063645       0.00008193       0.00001150       0.00211397
Si      32.55420419      62.35212749       3.50063599       0.00008549       0.00001766       0.00218995
Si      29.89671449      64.22737702       3.50063713      -0.00009777      -0.00035186       0.00206279
Si      30.19198863      67.46645053       3.50063793       0.00003239      -0.00017364       0.00193945
Si      33.14474799      68.83026441       3.50063614       0.00015838       0.00002670       0.00211404
Si      33.44002979      72.06934098       3.50063608       0.00009616      -0.00005011       0.00207379
Si      30.78253975      73.94458501       3.50063561       0.00003173      -0.00004658       0.00219328
Si      31.07781674      77.18366149       3.50063684       0.00003351       0.00032286       0.00207997
Si      34.03057637      78.54747796       3.50063637       0.00017289      -0.00008333       0.00214636
Si      34.32585515      81.78655657       3.50063661       0.00009151      -0.00024874       0.00209722
Si      31.66836641      83.66179762       3.50063705      -0.00007081       0.00021933       0.00207174
Si      31.96364435      86.90087138       3.50063551       0.00015602      -0.00036915       0.00200934
Si      34.91640647      88.26463170       3.50063080       0.00011820      -0.00034929       0.00209953
Si      35.21171049      91.50362196       3.50064018      -0.00010380      -0.00004073       0.00222374
Si      32.55420570       0.29853495       3.50064941      -0.00038958      -0.00026774       0.00199281
Si      32.84949391       3.53750303       3.50062513      -0.00014147       0.00002385       0.00224844
Si      30.19200173       5.41266163       3.50063540       0.00005236       0.00028391       0.00200616
Si      30.48727929       8.65172999       3.50063734      -0.00010016       0.00012411       0.00206820
Si      33.44003853      10.01554136       3.50063684       0.00007318      -0.00000906       0.00212558
Si      33.73531826      13.25461964       3.50063682       0.00002868       0.00001017       0.00211720
Si      31.07782959      15.12986452       3.50063635      -0.00004716       0.00001192       0.00212069
Si      31.37310532      18.36894239       3.50063700      -0.00008248       0.00003638       0.00203404
Si      34.32586738      19.73275458       3.50063706      -0.00002111       0.00004333       0.00207221
Si      34.62114281      22.97183369       3.50063720       0.00008177      -0.00006617       0.00207883
Si      31.96365625      24.84707837       3.50063712       0.00002484       0.00002404       0.00207469
Si      32.25893119      28.08615620       3.50063703       0.00002304       0.00010366       0.00206769
Si      35.21169359      29.44996917       3.50063662      -0.00006616      -0.00001587       0.00205321
Si      35.50697096      32.68905103       3.50063688       0.00013679      -0.00007188       0.00211326
Si      32.84948220      34.56429162       3.50063677      -0.00015023       0.00019319       0.00212512
Si      33.14475830      37.80336999       3.50063671       0.00014430       0.00007850       0.00204562
Si      36.09752152      39.16718595       3.50063688      -0.00015469      -0.00019173       0.00211022
Si      36.39280100      42.40626425       3.50063692      -0.00014156      -0.00002963       0.00206442
Si      33.73530917      44.28150727       3.50063664      -0.00008259       0.00014470       0.00208280
Si      34.03058914      47.52058838       3.50063653      -0.00022923       0.00011392       0.00213486
Si      36.98334770      48.88439893       3.50063689      -0.00012861       0.00013108       0.00207334
Si      37.27862432      52.12347683       3.50063652      -0.00007424      -0.00006249       0.00209334
Si      34.62113428      53.99872550       3.50063692      -0.00005117      -0.00001941       0.00207728
Si      34.91641603      57.23780507       3.50063620      -0.00027262      -0.00007113       0.00214470
Si      37.86917247      58.60161121       3.50063560       0.00012403       0.00018876       0.00220848
Si      38.16445236      61.84068998       3.50063741      -0.00018774       0.00012664       0.00205567
Si      35.50696240      63.71593484       3.50063654       0.00003830       0.00012310       0.00204828
Si      35.80223566      66.95502323       3.50063783       0.00012621      -0.00054185       0.00201266
Si      38.75499890      68.31883258       3.50063543       0.00013777       0.00000985       0.00226007
Si      39.05027782      71.55790638       3.50063846      -0.00005209      -0.00005575       0.00193762
Si      36.39278697      73.43314953       3.50063631       0.00005151       0.00030874       0.00210953
Si      36.68807002      76.67223087       3.50063749      -0.00023398       0.00016644       0.00202494
Si      39.64082674      78.03604764       3.50063649      -0.00013069      -0.00041753       0.00207901
Si      39.93610382      81.27511891       3.50063731      -0.00005825       0.00041649       0.00205885
Si      37.27861560      83.15036582       3.50063701       0.00015529      -0.00037974       0.00200133
Si      37.57389733      86.38943730       3.50063761      -0.00006070       0.00019368       0.00196146
Si      40.52665535      87.75324227       3.50063778      -0.00015600      -0.00043543       0.00181894
Si      40.82192914      90.99225725       3.50062238       0.00005432       0.00046446       0.00242094
Si      38.16444589      92.86738359       3.50064957       0.00009532       0.00018860       0.00203432
Si      38.45974583       3.02617398       3.50065194      -0.00010386      -0.00030087       0.00197899
Si      35.80221668       4.90126499       3.50062884       0.00032759       0.00012831       0.00219452
Si      36.09753043       8.14030423       3.50063693      -0.00015291       0.00024538       0.00207203
Si      39.05028787       9.50410827       3.50063721      -0.00000800      -0.00000786       0.00209817
Si      39.34556656      12.74318588       3.50063653      -0.00007454       0.00003991       0.00214723
Si      36.68807771      14.61843077       3.50063626       0.00001116      -0.00005814       0.00212536
Si      36.98335556      17.85750944       3.50063655      -0.00014163      -0.00000711       0.00208555
Si      39.93611788      19.22132081       3.50063702      -0.00001872      -0.00000123       0.00211848
Si      40.23139329      22.46040048       3.50063763      -0.00004368       0.00013284       0.00204382
Si      37.57390401      24.33564474       3.50063662       0.00007029      -0.00015703       0.00209428
Si      37.86917977      27.57472433       3.50063666       0.00022738       0.00005406       0.00210943
Si      40.82194536      28.93853574       3.50063705       0.00009308      -0.00002164       0.00206696
Si      41.11721781      32.17761599       3.50063659       0.00017143      -0.00015554       0.00210798
Si      38.45973167      34.05285819       3.50063670      -0.00006615       0.00010483       0.00209208
Si      38.75500823      37.29194112       3.50063713      -0.00015473      -0.00007232       0.00207227
Si      41.70777361      38.65575085       3.50063664      -0.00018949      -0.00006848       0.00210887
Si      42.00304488      41.89482850       3.50063740       0.00027159       0.00002981       0.00210742
Si      39.34555730      43.77007530       3.50063614      -0.00007151      -0.00003318       0.00212552
Si      39.64083179      47.00915579       3.50063745       0.00034594       0.00006698       0.00206544
Si      42.59359933      48.37296585       3.50063748      -0.00006351       0.00007251       0.00204350
Si      42.88887146      51.61204388       3.50063739       0.00021869       0.00003907       0.00206358
Si      40.23138395      53.48729271       3.50063679       0.00008105      -0.00010746       0.00210071
Si      40.52666468      56.72636856       3.50063726      -0.00021336       0.00007355       0.00208195