2472
Lattice="57.17342301708997 0.0 0.0 0.0 99.02727350822775 0.0 0.0 0.0 100.0" Properties=species:S:1:pos:R:3:forces:R:3 energy=-845138.3341369629 free_energy=-845138.3341369629 pbc="T T T"
Si       0.27770326      75.87329212       3.50064557      -0.00029028       0.00008388       0.00193366
Si       1.38784297      82.28288918       3.50064571      -0.00018821       0.00006513       0.00202289
Si       1.94290344      85.48765403       3.50064496      -0.00009641       0.00002761       0.00200125
Si       0.00015601      90.77554526       3.50064476      -0.00033846      -0.00034931       0.00207586
Si       3.05301160      91.89723885       3.50062273      -0.00002472      -0.00056969       0.00239634
Si       3.60807156      95.10192631       3.50061794       0.00032375      -0.00013222       0.00234007
Si       1.11027627      97.18493362       3.50066106      -0.00003212       0.00029302       0.00179037
Si       0.27768377      42.86401958       3.50064510      -0.00019647      -0.00001337       0.00202874
Si       0.83275659      46.06877578       3.50064330      -0.00008613       0.00005845       0.00203499
Si       1.94294144      52.47839979       3.50064842      -0.00032144      -0.00000757       0.00195939
Si       2.49793096      55.68316712       3.50062675       0.00018402       0.00001417       0.00220556
Si       0.00013370      57.76627848       3.50064496      -0.00018783      -0.00020079       0.00207328
Si       0.55520660      60.97102674       3.50064273      -0.00009386       0.00024452       0.00206993
Si       3.60809219      62.09273345       3.50062988       0.00009757      -0.00021153       0.00217171
Si       4.16317427      65.29749781       3.50063098       0.00009034      -0.00004740       0.00211231
Si       1.66539245      67.38063725       3.50064485      -0.00022353      -0.00018001       0.00203239
Si       2.22045346      70.58539838       3.50064381      -0.00012664       0.00023521       0.00211995
Si       5.27334841      71.70709828       3.50063089       0.00014254      -0.00014591       0.00220395
Si       5.82838841      74.91187625       3.50063605       0.00015601       0.00026825       0.00201870
Si       3.33056511      76.99500471       3.50062756      -0.00006615      -0.00001403       0.00219236
Si       3.88562472      80.19974953       3.50063084       0.00014645      -0.00003181       0.00205885
Si       6.93855632      81.32144016       3.50063698       0.00015250       0.00000432       0.00195597
Si       7.49364214      84.52623072       3.50063580       0.00013567       0.00002268       0.00215379
Si       4.99579911      86.60935376       3.50063189       0.00006065      -0.00008693       0.00210826
Si       5.55083788      89.81413107       3.50063637       0.00019890       0.00000669       0.00203892
Si       8.60380664      90.93578635       3.50063681      -0.00000745      -0.00030813       0.00203722
Si       9.15892966      94.14053469       3.50062859      -0.00045681       0.00005820       0.00218727
Si       6.66099176      96.22348486       3.50065223       0.00024985       0.00014560       0.00183553
Si       0.83278230      13.05950972       3.50064485      -0.00022520       0.00003406       0.00207260
Si       1.38785487      16.26426530       3.50064273      -0.00008342      -0.00002119       0.00203135
Si       2.49803978      22.67389007       3.50064742      -0.00023519      -0.00017943       0.00198208
Si       3.05302963      25.87865688       3.50062625       0.00011922      -0.00003996       0.00229552
Si       0.55523352      27.96176380       3.50064483      -0.00023322       0.00004383       0.00205970
Si       1.11030651      31.16651903       3.50064286      -0.00017664       0.00010347       0.00205994
Si       4.16319110      32.28822582       3.50063043       0.00008458      -0.00022240       0.00217044
Si       4.71827010      35.49298538       3.50062974       0.00006480       0.00025595       0.00221603
Si       2.22049064      37.57614318       3.50064814      -0.00029453      -0.00001794       0.00195645
Si       2.77548097      40.78091335       3.50062720       0.00008776      -0.00014681       0.00225308
Si       5.82840502      41.90257823       3.50063567       0.00020242       0.00011545       0.00209244
Si       6.38348501      45.10736497       3.50063721       0.00011710      -0.00019828       0.00204205
Si       3.88564178      47.19048366       3.50063084       0.00008030      -0.00016627       0.00209420
Si       4.44071940      50.39524223       3.50063142       0.00010628       0.00013413       0.00211060
Si       7.49365349      51.51693058       3.50063644       0.00021468       0.00021007       0.00207697
Si       8.04873488      54.72172488       3.50063755      -0.00001781       0.00001668       0.00204398
Si       5.55085520      56.80483105       3.50063629       0.00020179      -0.00004927       0.00205011
Si       6.10593698      60.00961987       3.50063646       0.00006054      -0.00003215       0.00206531
Si       9.15890360      61.13128723       3.50063665       0.00004294       0.00011574       0.00208662
Si       9.71398872      64.33608018       3.50063663       0.00013846       0.00003076       0.00212265
Si       7.21610459      66.41919080       3.50063551       0.00028201      -0.00001707       0.00211719
Si       7.77119151      69.62397528       3.50063641       0.00014087      -0.00006009       0.00205567
Si      10.82416065      70.74565000       3.50063731      -0.00002434      -0.00019592       0.00209805
Si      11.37924527      73.95044133       3.50063684       0.00001351       0.00014215       0.00210157
Si       8.88135469      76.03354687       3.50063731       0.00001503      -0.00009904       0.00206096
Si       9.43644030      79.23833515       3.50063707       0.00005373       0.00011953       0.00207940
Si      12.48941347      80.36000713       3.50063657       0.00005442      -0.00019785       0.00213204
Si      13.04450050      83.56479016       3.50063644      -0.00002271       0.00020620       0.00206783
Si      10.54661001      85.64790306       3.50063630      -0.00001546       0.00012117       0.00210712
Si      11.10169617      88.85269527       3.50063589       0.00003447       0.00007413       0.00210795
Si      14.15467022      89.97436123       3.50063746      -0.00006037      -0.00018159       0.00209644
Si      14.70975639      93.17914791       3.50063622       0.00014138      -0.00023184       0.00194154
Si      12.21185317      95.26215317       3.50062285       0.00017855       0.00003869       0.00235214
Si      12.76697869      98.46682368       3.50064988       0.00008392       0.00022286       0.00198784
Si       1.66542249       1.36222012       3.50065814      -0.00021662      -0.00019647       0.00183968
Si       4.71829115       2.48379670       3.50061687       0.00001140      -0.00001842       0.00232467
Si       5.27337143       5.68849159       3.50062986       0.00006714       0.00054722       0.00211967
Si       2.77558804       7.77163680       3.50064862      -0.00019945      -0.00014384       0.00193013
Si       3.33057894      10.97640195       3.50062663       0.00013035      -0.00004968       0.00223705
Si       6.38350268      12.09806664       3.50063632       0.00022881       0.00004365       0.00203502
Si       6.93858355      15.30285279       3.50063666       0.00015981      -0.00008195       0.00208827
Si       4.44074049      17.38596885       3.50063021       0.00008155      -0.00015414       0.00216073
Si       4.99581894      20.59073062       3.50063143       0.00008565       0.00014976       0.00213549
Si       8.04875337      21.71241997       3.50063643       0.00013521       0.00010781       0.00206922
Si       8.60383312      24.91721261       3.50063667       0.00002825      -0.00000615       0.00209589
Si       6.10595349      27.00032185       3.50063586       0.00022845      -0.00009693       0.00204950
Si       6.66103403      30.20510938       3.50063632       0.00017282      -0.00008749       0.00208418
Si       9.71400241      31.32677827       3.50063674       0.00002135      -0.00007302       0.00208440
Si      10.26908870      34.53157047       3.50063638       0.00001547      -0.00001917       0.00212269
Si       7.77120341      36.61467528       3.50063621       0.00017010       0.00012900       0.00209052
Si       8.32628452      39.81946836       3.50063622       0.00001663      -0.00003986       0.00214580
Si      11.37925733      40.94113647       3.50063658      -0.00000032      -0.00002760       0.00212332
Si      11.93434291      44.14592746       3.50063701       0.00001835       0.00008700       0.00205104
Si       9.43645288      46.22903400       3.50063736       0.00004014      -0.00003983       0.00203067
Si       9.99153890      49.43382599       3.50063690       0.00005967       0.00008824       0.00208600
Si      13.04451335      50.55549531       3.50063749      -0.00002976      -0.00019382       0.00202783
Si      13.59959856      53.76028538       3.50063556       0.00000696       0.00002728       0.00221233
Si      11.10170843      55.84339068       3.50063628      -0.00013528       0.00013125       0.00214136
Si      11.65679385      59.04818667       3.50063708       0.00007126      -0.00006461       0.00202428
Si      14.70976763      60.16985306       3.50063674       0.00000476      -0.00017139       0.00206719
Si      15.26485569      63.37463975       3.50063634      -0.00006855       0.00000363       0.00213806
Si      12.76696461      65.45774932       3.50063617      -0.00010847       0.00013220       0.00211380
Si      13.32205001      68.66254499       3.50063508      -0.00000888      -0.00000437       0.00221998
Si      16.37502321      69.78420778       3.50063620      -0.00000529      -0.00004275       0.00213528
Si      16.93011005      72.98899932       3.50063649      -0.00005803      -0.00009017       0.00214055
Si      14.43221924      75.07210860       3.50063615       0.00000933       0.00013737       0.00215071
Si      14.98730449      78.27689644       3.50063570       0.00005285       0.00005286       0.00211771
Si      18.04027891      79.39856669       3.50063687      -0.00000711      -0.00010379       0.00209552
Si      18.59536611      82.60336165       3.50063581      -0.00001305      -0.00025412       0.00207644
Si      16.09747493      84.68646022       3.50063718      -0.00002650      -0.00007642       0.00205845
Si      16.65256208      87.89125901       3.50063622      -0.00003126      -0.00020885       0.00208228
Si      19.70553406      89.01292016       3.50063684       0.00005655       0.00021351       0.00208728
Si      20.26062564      92.21770868       3.50063713       0.00012077      -0.00026759       0.00207055
Si      17.76272669      94.30075067       3.50062934       0.00005011       0.00003095       0.00221192
Si      18.31785023      97.50544878       3.50064303      -0.00014412       0.00052215       0.00206970
Si      21.37079236      98.62706668       3.50064868      -0.00025800       0.00049699       0.00204055
Si       7.21613057       0.40080582       3.50065008       0.00028005      -0.00033613       0.00198453
Si      10.26906786       1.52243030       3.50064288       0.00006630      -0.00015155       0.00208467
Si      10.82418998       4.72712972       3.50062962      -0.00000842       0.00013260       0.00217400
Si       8.32629879       6.81017368       3.50063603       0.00004617       0.00018551       0.00205803
Si       8.88138250      10.01495802       3.50063687       0.00002403       0.00006922       0.00208081
Si      11.93435637      11.13662475       3.50063658      -0.00003743      -0.00000509       0.00211442
Si      12.48944137      14.34141683       3.50063635       0.00005465       0.00006087       0.00212457
Si       9.99155160      16.42452152       3.50063682       0.00005371      -0.00011202       0.00209873
Si      10.54663758      19.62931494       3.50063712       0.00004221       0.00005708       0.00206961
Si      13.59961140      20.75098238       3.50063600      -0.00001168      -0.00012822       0.00215343
Si      14.15469744      23.95577463       3.50063660      -0.00000127       0.00006796       0.00211168
Si      11.65680657      26.03887885       3.50063630      -0.00005264       0.00000247       0.00212559
Si      12.21189243      29.24367236       3.50063654       0.00003164       0.00001308       0.00212597
Si      15.26486629      30.36533850       3.50063644       0.00002021       0.00001306       0.00214071
Si      15.81995374      33.57013227       3.50063634      -0.00001288      -0.00001157       0.00213426
Si      13.32206106      35.65323798       3.50063686       0.00006141      -0.00002320       0.00207056
Si      13.87714735      38.85803011       3.50063686       0.00007024       0.00010225       0.00206751
Si      16.93012141      39.97969833       3.50063632       0.00007697      -0.00007253       0.00209562
Si      17.48520885      43.18449172       3.50063617      -0.00001962       0.00000445       0.00212881
Si      14.98731804      45.26759481       3.50063673       0.00000217       0.00014565       0.00210303
Si      15.54240275      48.47238820       3.50063645      -0.00000993      -0.00011617       0.00208809
Si      18.59537760      49.59405330       3.50063636      -0.00001909      -0.00011068       0.00209274
Si      19.15046411      52.79884895       3.50063687      -0.00002871       0.00014114       0.00210074
Si      16.65257124      54.88194940       3.50063661       0.00016358       0.00001141       0.00210869
Si      17.20765943      58.08674879       3.50063733      -0.00002310      -0.00017045       0.00202667
Si      20.26063389      59.20841100       3.50063603      -0.00005803       0.00015244       0.00215206
Si      20.81571854      62.41320688       3.50063665       0.00008198       0.00002638       0.00208469
Si      18.31782861      64.49631008       3.50063671       0.00003628       0.00025348       0.00210249
Si      18.87291407      67.70110673       3.50063449       0.00000231       0.00017106       0.00220317
Si      21.92588796      68.82276851       3.50063723      -0.00000408       0.00001850       0.00209359
Si      22.48097436      72.02756168       3.50063620       0.00010100       0.00009767       0.00218388
Si      19.98308450      74.11066408       3.50063675      -0.00002880       0.00025186       0.00207112
Si      20.53816985      77.31546290       3.50063632      -0.00003998       0.00009707       0.00210536
Si      23.59114339      78.43713093       3.50063662       0.00001454      -0.00013791       0.00207426
Si      24.14623033      81.64192399       3.50063646      -0.00000676       0.00004198       0.00214315
Si      21.64833903      83.72502927       3.50063721       0.00003800      -0.00012862       0.00201195
Si      22.20342442      86.92981713       3.50063744       0.00004974       0.00006783       0.00204050
Si      25.25639980      88.05148565       3.50063657       0.00010657       0.00001273       0.00216092
Si      25.81148832      91.25627856       3.50063799      -0.00005967      -0.00010571       0.00196036
Si      23.31359239      93.33936418       3.50063465       0.00002432      -0.00025332       0.00208277
Si      23.86867942      96.54409804       3.50062333       0.00009990      -0.00019476       0.00229238
Si      26.92163584      97.66563562       3.50065246       0.00006880       0.00028287       0.00186253
Si      15.81993837       0.56105986       3.50064986      -0.00012208      -0.00028917       0.00193945
Si      16.37506260       3.76572510       3.50062397      -0.00014143       0.00005161       0.00223507
Si      13.87715802       5.84873581       3.50063569      -0.00009396       0.00026603       0.00199496
Si      14.43224528       9.05352010       3.50063696       0.00004547       0.00010126       0.00206846
Si      17.48522035      10.17518789       3.50063693      -0.00001334      -0.00001907       0.00208937
Si      18.04030717      13.37997885       3.50063669      -0.00002569       0.00003349       0.00212419
Si      15.54241623      15.46308336       3.50063667       0.00000186      -0.00002886       0.00211681
Si      16.09750206      18.66787702       3.50063638       0.00001635      -0.00000643       0.00212156
Si      19.15047627      19.78954279       3.50063670      -0.00000195       0.00000852       0.00208018
Si      19.70556172      22.99433768       3.50063668       0.00001934      -0.00005232       0.00209522
Si      17.20767174      25.07744006       3.50063638      -0.00003657      -0.00000930       0.00212960
Si      17.76275828      28.28223397       3.50063681      -0.00002131       0.00009102       0.00209468
Si      20.81573226      29.40390125       3.50063667      -0.00005983       0.00000375       0.00211704
Si      21.37081749      32.60869433       3.50063681       0.00002316       0.00001659       0.00206286
Si      18.87292735      34.69180017       3.50063619      -0.00002630       0.00002647       0.00210068
Si      19.42801290      37.89659023       3.50063705       0.00002828       0.00010426       0.00208207
Si      22.48098812      39.01825939       3.50063652      -0.00002937      -0.00008170       0.00211324
Si      23.03607280      42.22305268       3.50063663       0.00005107      -0.00001528       0.00212260
Si      20.53818228      44.30615631       3.50063654      -0.00000872      -0.00000139       0.00214447
Si      21.09326911      47.51094769       3.50063643      -0.00004480       0.00002830       0.00214756
Si      24.14624274      48.63261651       3.50063645       0.00004983       0.00001177       0.00210226
Si      24.70132911      51.83740897       3.50063701       0.00002580       0.00011460       0.00207365
Si      22.20343771      53.92051375       3.50063648       0.00000570      -0.00004878       0.00210017
Si      22.75852414      57.12530940       3.50063735       0.00004373      -0.00014938       0.00204827
Si      25.81149874      58.24697335       3.50063607       0.00000795      -0.00015234       0.00213317
Si      26.36658473      61.45176862       3.50063670       0.00003808       0.00010037       0.00210867
Si      23.86869448      63.53487293       3.50063631      -0.00007816      -0.00012358       0.00212317
Si      24.42377978      66.73966487       3.50063581       0.00001386       0.00015739       0.00212241
Si      27.47675414      67.86133467       3.50063581      -0.00008766      -0.00001558       0.00212139
Si      28.03184169      71.06612117       3.50063562      -0.00012464       0.00019701       0.00223179
Si      25.53394928      73.14923178       3.50063713       0.00000856       0.00008285       0.00201209
Si      26.08903662      76.35402306       3.50063625      -0.00010795      -0.00007675       0.00218153
Si      29.14201199      77.47568897       3.50063715      -0.00017380      -0.00005796       0.00203600
Si      29.69709717      80.68048144       3.50063639      -0.00000469      -0.00011246       0.00214766
Si      27.19920445      82.76358715       3.50063572      -0.00006644       0.00008692       0.00218158
Si      27.75428935      85.96838295       3.50063543       0.00029036      -0.00003367       0.00213507
Si      30.80726312      87.09004947       3.50063520       0.00018776      -0.00015900       0.00225598
Si      31.36235195      90.29484284       3.50063728      -0.00003104      -0.00044935       0.00205598
Si      28.86445766      92.37792409       3.50063621      -0.00006141      -0.00000245       0.00192168
Si      29.41954272      95.58265314       3.50062414       0.00012439      -0.00021493       0.00232931
Si      32.47250574      96.70418442       3.50065333      -0.00004644       0.00064329       0.00188365
Si      21.92593315       2.80440048       3.50065259      -0.00013637      -0.00039440       0.00191434
Si      19.42798982       4.88734528       3.50062811       0.00030131       0.00008049       0.00219865
Si      19.98311207       8.09209099       3.50063622      -0.00002152       0.00030659       0.00208725
Si      23.03608531       9.21374991       3.50063719       0.00000736      -0.00001192       0.00208338
Si      23.59117221      12.41854120       3.50063610       0.00007519       0.00003983       0.00215551
Si      21.09328037      14.50164541       3.50063643       0.00002580      -0.00000090       0.00211804
Si      21.64836760      17.70643870       3.50063664       0.00006006       0.00004558       0.00211858
Si      24.70134215      18.82810654       3.50063657      -0.00001105      -0.00014161       0.00214155
Si      25.25642867      22.03289944       3.50063641      -0.00000005      -0.00006060       0.00211787
Si      22.75853699      24.11600217       3.50063670      -0.00001798       0.00000236       0.00210738
Si      23.31362286      27.32079748       3.50063630      -0.00000999       0.00002518       0.00211542
Si      26.36659664      28.44246210       3.50063648       0.00003805       0.00002761       0.00212281
Si      26.92168350      31.64725674       3.50063681      -0.00003201       0.00003293       0.00206741
Si      24.42379191      33.73036021       3.50063693       0.00001591      -0.00003253       0.00206443
Si      24.97887859      36.93515419       3.50063645       0.00004609       0.00009008       0.00213479
Si      28.03185380      38.05682109       3.50063643      -0.00007324       0.00002084       0.00214925
Si      28.58693810      41.26161358       3.50063533       0.00000350       0.00009649       0.00223600
Si      26.08904750      43.34471896       3.50063614       0.00003589      -0.00006425       0.00216476
Si      26.64413344      46.54951378       3.50063696       0.00007238      -0.00010831       0.00206342
Si      29.69710953      47.67118165       3.50063661      -0.00003926      -0.00003746       0.00210820
Si      30.25219450      50.87597169       3.50063659      -0.00002278       0.00009689       0.00210183
Si      27.75430295      52.95907489       3.50063698       0.00001193       0.00004430       0.00207793
Si      28.30938941      56.16387099       3.50063656       0.00003724      -0.00002587       0.00211921
Si      31.36236493      57.28553962       3.50063615      -0.00008189      -0.00012973       0.00212199
Si      31.91744767      60.49032995       3.50063574       0.00013142       0.00011519       0.00212463
Si      29.41956205      62.57343768       3.50063683      -0.00009670      -0.00009718       0.00208469
Si      29.97464600      65.77822352       3.50063692      -0.00006858       0.00019524       0.00210847
Si      33.02761980      66.89989326       3.50063737       0.00003883      -0.00016870       0.00203018
Si      33.58270698      70.10468193       3.50063721      -0.00002727       0.00035447       0.00203967
Si      31.08481423      72.18779119       3.50063651      -0.00000954      -0.00025752       0.00211986
Si      31.63990279      75.39258133       3.50063621      -0.00002177       0.00038031       0.00210084
Si      34.69287547      76.51425433       3.50063632       0.00007605       0.00008701       0.00215654
Si      35.24796030      79.71904322       3.50063721       0.00020580       0.00044121       0.00202277
Si      32.75007126      81.80214978       3.50063575       0.00000209      -0.00012067       0.00216191
Si      33.30515598      85.00693854       3.50063433       0.00000724       0.00056405       0.00227774
Si      36.35813228      86.12860925       3.50063672      -0.00010123      -0.00005770       0.00211869
Si      36.91321857      89.33340188       3.50063699       0.00000046      -0.00017981       0.00206402
Si      34.41532825      91.41650155       3.50063812      -0.00019624      -0.00051279       0.00189930
Si      34.97044873      94.62124339       3.50062892      -0.00021666      -0.00007350       0.00212116
Si      38.02337273      95.74285909       3.50062362       0.00027666       0.00024407       0.00219304
Si      38.57849911      98.94753036       3.50064924       0.00009288       0.00016655       0.00204769
Si      27.47680100       1.84295847       3.50065229      -0.00008931      -0.00037859       0.00185064
Si      24.97889426       3.92593132       3.50062319      -0.00003970       0.00007154       0.00231534
Si      25.53397881       7.13066055       3.50063526       0.00003339       0.00036474       0.00205470
Si      28.58695092       8.25231282       3.50063737       0.00003803       0.00003840       0.00209159
Si      29.14203935      11.45710376       3.50063637      -0.00009770       0.00006995       0.00212275
Si      26.64414669      13.54020740       3.50063653       0.00003588      -0.00001819       0.00213913
Si      27.19923371      16.74500134       3.50063693      -0.00008089      -0.00004913       0.00210081
Si      30.25220787      17.86666670       3.50063607      -0.00017761      -0.00000146       0.00214548
Si      30.80729423      21.07146089       3.50063639       0.00005214      -0.00002073       0.00213023
Si      28.30940216      23.15456559       3.50063675      -0.00003156      -0.00012772       0.00209535
Si      28.86448852      26.35935797       3.50063646       0.00003557       0.00007450       0.00211619
Si      31.91746053      27.48102566       3.50063664       0.00000479      -0.00007691       0.00209766
Si      32.47254894      30.68581776       3.50063721       0.00005392       0.00002356       0.00204716
Si      29.97465720      32.76892394       3.50063726      -0.00005129      -0.00007685       0.00203846
Si      30.52974392      35.97371443       3.50063598      -0.00001155       0.00022131       0.00211396
Si      33.58271906      37.09538444       3.50063635       0.00002303      -0.00008268       0.00211472
Si      34.13780474      40.30017577       3.50063653      -0.00008709       0.00007934       0.00213936
Si      31.63991229      42.38327992       3.50063605       0.00007073       0.00001588       0.00213964
Si      32.19499964      45.58807274       3.50063636       0.00001314       0.00005848       0.00212160
Si      35.24797386      46.70974178       3.50063687       0.00003372      -0.00008383       0.00211599
Si      35.80305925      49.91453181       3.50063717       0.00003989       0.00002452       0.00202638
Si      33.30516896      51.99763973       3.50063565       0.00006393      -0.00005014       0.00217824
Si      33.86025527      55.20243201       3.50063583      -0.00002799       0.00009189       0.00216121
Si      36.91322944      56.32409817       3.50063614       0.00008931       0.00007919       0.00216182
Si      37.46831636      59.52888977       3.50063626       0.00001449       0.00008591       0.00213074
Si      34.97042362      61.61199814       3.50063725       0.00004504      -0.00013674       0.00206253
Si      35.52551108      64.81679386       3.50063652      -0.00008672      -0.00038619       0.00208534
Si      38.57848421      65.93845845       3.50063649       0.00018289      -0.00022761       0.00208028
Si      39.13357102      69.14325001       3.50063698       0.00007129       0.00014977       0.00206474
Si      36.63568116      71.22635713       3.50063616      -0.00006749      -0.00008429       0.00209446
Si      37.19076417      74.43114829       3.50063796       0.00014847       0.00007901       0.00200555
Si      40.24374125      75.55281729       3.50063694       0.00002998      -0.00017826       0.00206146
Si      40.79882887      78.75760687       3.50063647      -0.00006103       0.00016247       0.00212438
Si      38.30093622      80.84071090       3.50063649      -0.00012495      -0.00005841       0.00211466
Si      38.85602238      84.04550519       3.50063516      -0.00001223       0.00011668       0.00220304
Si      41.90899507      85.16717433       3.50063546       0.00000076      -0.00019970       0.00220423
Si      42.46408334      88.37196433       3.50063672      -0.00015627       0.00015434       0.00215363
Si      39.96619124      90.45506764       3.50063734       0.00003955      -0.00009397       0.00196052
Si      40.52127619      93.65984695       3.50063453       0.00003403       0.00005477       0.00206284
Si      43.57423593      94.78142593       3.50062396       0.00001705      -0.00019970       0.00233109
Si      44.12936188      97.98609564       3.50064988      -0.00008012       0.00027477       0.00208315
Si      33.02764579       0.88151900       3.50064919       0.00016306      -0.00019629       0.00197891
Si      30.52975705       2.96449529       3.50062308       0.00006617       0.00006855       0.00228147
Si      31.08484439       6.16922299       3.50063538       0.00009675       0.00032716       0.00209196
Si      34.13781328       7.29088104       3.50063654      -0.00009055       0.00008148       0.00208212
Si      34.69290280      10.49566781       3.50063709       0.00009189       0.00001901       0.00205641
Si      32.19501371      12.57877017       3.50063626      -0.00013103      -0.00003573       0.00209341
Si      32.75009821      15.78356346       3.50063668       0.00002071      -0.00000918       0.00208872
Si      35.80307290      16.90522946       3.50063616      -0.00004949      -0.00010374       0.00210965
Si      36.35815900      20.11002192       3.50063715       0.00003189       0.00010458       0.00205999
Si      33.86026673      22.19312654       3.50063633      -0.00002813       0.00005982       0.00210237
Si      34.41535389      25.39792068       3.50063716      -0.00005041       0.00001651       0.00205482
Si      37.46832863      26.51958604       3.50063680      -0.00008543       0.00002399       0.00208620
Si      38.02341498      29.72438016       3.50063670       0.00002948       0.00004507       0.00211857
Si      35.52552283      31.80748288       3.50063619      -0.00000207       0.00005882       0.00213081