2808
Lattice="60.935238186290896 0.0 0.0 0.0 105.54292850996703 0.0 0.0 0.0 100.0" Properties=species:S:1:pos:R:3:forces:R:3 energy=-960011.5047454834 free_energy=-960011.5047454834 pbc="T T T"
Si       0.97662042     103.62644114       3.50066212      -0.00004585       0.00061506       0.00190332
Si       0.19546058      77.01522931       3.50064610      -0.00026205      -0.00029750       0.00200455
Si       1.75788966      83.32984144       3.50064992      -0.00025627       0.00024804       0.00193220
Si       2.53901042      86.48711486       3.50062688       0.00020123      -0.00005433       0.00218742
Si       0.19542496      88.74232655       3.50064730      -0.00012732      -0.00026543       0.00198557
Si       0.97663138      91.89956963       3.50064259      -0.00005428       0.00032795       0.00203077
Si       4.10145115      92.80168521       3.50063084      -0.00003742       0.00005112       0.00207018
Si       4.88266974      95.95894699       3.50063137      -0.00004035       0.00009838       0.00215362
Si       2.53910803      98.21418753       3.50064821      -0.00044070      -0.00047852       0.00192784
Si       3.32026458     101.37140311       3.50061614      -0.00010247       0.00005140       0.00241556
Si       6.44506539     102.27343013       3.50062253       0.00037946       0.00026010       0.00215998
Si       7.22634712     105.43058200       3.50064960       0.00010392       0.00015775       0.00199326
Si       0.19544685      53.56111759       3.50064646      -0.00020216       0.00018931       0.00202393
Si       0.97665210      56.71837451       3.50064237      -0.00011630       0.00016308       0.00206994
Si       2.53912677      63.03300276       3.50064903      -0.00024177      -0.00019436       0.00199625
Si       3.32024944      66.19027004       3.50062515       0.00019119      -0.00009202       0.00228998
Si       0.97666382      68.44547698       3.50064648      -0.00013897      -0.00014428       0.00205299
Si       1.75786269      71.60273830       3.50064318      -0.00011953       0.00012268       0.00207852
Si       4.88268948      72.50484450       3.50063065       0.00002380       0.00007807       0.00217140
Si       5.66386730      75.66212794       3.50063619       0.00023766       0.00013943       0.00199190
Si       3.32025518      77.91734447       3.50062645       0.00009771      -0.00027353       0.00227844
Si       4.10145071      81.07459612       3.50063071       0.00012860       0.00069992       0.00212035
Si       7.22631701      81.97669919       3.50063642       0.00024555      -0.00014721       0.00213172
Si       8.00753873      85.13398746       3.50063701      -0.00009629       0.00024831       0.00209228
Si       5.66386689      87.38918986       3.50063715       0.00009249      -0.00003869       0.00195052
Si       6.44508654      90.54648407       3.50063634       0.00007999      -0.00061551       0.00209068
Si       9.56998727      91.44855661       3.50063717       0.00004754      -0.00012919       0.00205081
Si      10.35121411      94.60584730       3.50063848       0.00007354      -0.00010125       0.00201066
Si       8.00753685      96.86104781       3.50063595       0.00014057       0.00009471       0.00214444
Si       8.78875781     100.01832653       3.50063623       0.00007256       0.00009892       0.00200871
Si      11.91365738     100.92033422       3.50062869       0.00005850       0.00020733       0.00227220
Si      12.69492980     104.07752428       3.50064589      -0.00011081       0.00020609       0.00202723
Si       0.97668502      33.26427546       3.50064591      -0.00025576       0.00010563       0.00204149
Si       1.75788281      36.42153847       3.50064503      -0.00013176      -0.00001780       0.00199402
Si       0.19548026      41.83402644       3.50064710      -0.00023889      -0.00002657       0.00195232
Si       3.32027504      42.73614685       3.50062797       0.00002932      -0.00005285       0.00212465
Si       4.10147000      45.89340118       3.50063051       0.00015146       0.00005948       0.00216375
Si       1.75790692      48.14864585       3.50064828      -0.00021436      -0.00012812       0.00199496
Si       2.53902975      51.30592053       3.50062526       0.00009871      -0.00001275       0.00228058
Si       5.66388408      52.20799443       3.50063629       0.00027675       0.00002339       0.00203867
Si       6.44510511      55.36527729       3.50063663       0.00017250       0.00014823       0.00206194
Si       4.10147124      57.62049040       3.50062955       0.00007005      -0.00015386       0.00221892
Si       4.88268858      60.77774788       3.50063064       0.00006789       0.00036020       0.00217182
Si       8.00755686      61.67984803       3.50063657       0.00013391       0.00016083       0.00207138
Si       8.78877632      64.83714180       3.50063699       0.00000391       0.00015320       0.00208111
Si       6.44510390      67.09234572       3.50063724       0.00026037      -0.00022479       0.00193665
Si       7.22632420      70.24963865       3.50063539       0.00021514      -0.00065596       0.00218391
Si      10.35122705      71.15170712       3.50063766       0.00005056      -0.00016106       0.00200870
Si      11.13245216      74.30901051       3.50063672       0.00011475      -0.00032420       0.00207934
Si       8.78876811      76.56420157       3.50063603       0.00006893       0.00011487       0.00218870
Si       9.56999592      79.72149396       3.50063660       0.00013616       0.00000312       0.00206788
Si      12.69490539      80.62357227       3.50063640      -0.00009786      -0.00008269       0.00216980
Si      13.47613020      83.78085951       3.50063543       0.00010601      -0.00008794       0.00218386
Si      11.13244451      86.03606339       3.50063711       0.00006956       0.00007893       0.00209291
Si      11.91367164      89.19336045       3.50063765       0.00008120      -0.00006951       0.00199634
Si      15.03858081      90.09543118       3.50063778      -0.00009252       0.00011886       0.00202800
Si      15.81980851      93.25272066       3.50063631       0.00005977       0.00004104       0.00212077
Si      13.47612315      95.50792080       3.50063614      -0.00000284      -0.00004889       0.00211387
Si      14.25735478      98.66520645       3.50063663       0.00003979      -0.00022077       0.00206431
Si      17.38225281      99.56726924       3.50063430       0.00003109      -0.00034198       0.00213316
Si      18.16348321     102.72449538       3.50062341       0.00014858      -0.00003253       0.00224140
Si      15.81979924     104.97955931       3.50064892      -0.00013257       0.00016027       0.00207889
Si       0.19550494       6.65284957       3.50064536      -0.00021118       0.00026020       0.00197107
Si       1.75792862      12.96745055       3.50064878      -0.00037327      -0.00013642       0.00198962
Si       2.53905001      16.12472169       3.50062543       0.00008947       0.00004540       0.00231946
Si       0.19546640      18.37992188       3.50064588      -0.00026501       0.00007178       0.00203976
Si       0.97667122      21.53717751       3.50064232      -0.00007854      -0.00004360       0.00208911
Si       4.10149094      22.43929083       3.50062987       0.00007421      -0.00020585       0.00216919
Si       4.88270805      25.59655033       3.50063065       0.00007737       0.00027335       0.00218153
Si       2.53914551      27.85180343       3.50064890      -0.00021790      -0.00013976       0.00190849
Si       3.32026939      31.00907511       3.50062556       0.00006233      -0.00001232       0.00231184
Si       6.44512348      31.91114709       3.50063546       0.00024524       0.00012645       0.00208876
Si       7.22634454      35.06843713       3.50063638       0.00012431      -0.00024299       0.00206901
Si       4.88271075      37.32364625       3.50063113       0.00002834      -0.00010089       0.00211923
Si       5.66388827      40.48093003       3.50063643       0.00014658      -0.00000101       0.00198510
Si       8.78878698      41.38300182       3.50063647       0.00013331       0.00016088       0.00213691
Si       9.57001692      44.54029763       3.50063757       0.00003658       0.00011840       0.00201258
Si       7.22633732      46.79549779       3.50063627       0.00018845       0.00001539       0.00209991
Si       8.00755672      49.95278893       3.50063721       0.00014478       0.00006893       0.00204924
Si      11.13246555      50.85486371       3.50063735      -0.00005021       0.00005741       0.00207335
Si      11.91369284      54.01215771       3.50063667       0.00002956      -0.00002847       0.00209748
Si       9.57000697      56.26735765       3.50063658       0.00003511      -0.00014509       0.00212916
Si      10.35123479      59.42464914       3.50063580       0.00009100       0.00016802       0.00212297
Si      13.47614316      60.32672506       3.50063716      -0.00008103      -0.00003045       0.00209921
Si      14.25737070      63.48401463       3.50063690      -0.00007116      -0.00002550       0.00208285
Si      11.91368364      65.73922009       3.50063740      -0.00005030      -0.00004545       0.00204258
Si      12.69491127      68.89651161       3.50063627      -0.00010232      -0.00001773       0.00215472
Si      15.81981910      69.79858461       3.50063707      -0.00000271      -0.00001011       0.00208552
Si      16.60104672      72.95587851       3.50063642      -0.00006348       0.00000897       0.00213614
Si      14.25736165      75.21107944       3.50063773       0.00003215      -0.00041222       0.00204058
Si      15.03858807      78.36836951       3.50063585      -0.00001510       0.00020688       0.00208606
Si      18.16349597      79.27044348       3.50063726      -0.00000107      -0.00015302       0.00208198
Si      18.94472615      82.42773769       3.50063569      -0.00008030       0.00019979       0.00216263
Si      16.60103894      84.68294147       3.50063721      -0.00005726      -0.00047849       0.00203852
Si      17.38226783      87.84022585       3.50063605       0.00000486      -0.00007273       0.00221604
Si      20.50717318      88.74230382       3.50063797       0.00010985      -0.00013286       0.00204136
Si      21.28840425      91.89959455       3.50063760      -0.00010068      -0.00009466       0.00205185
Si      18.94471388      94.15479664       3.50063634       0.00002971      -0.00007924       0.00212752
Si      19.72594423      97.31208978       3.50063812       0.00012865      -0.00010233       0.00199719
Si      22.85085056      98.21415206       3.50063602      -0.00005431      -0.00050519       0.00205931
Si      23.63211520     101.37139436       3.50062775      -0.00028125      -0.00008884       0.00216384
Si      21.28837013     103.62642986       3.50065350       0.00009470       0.00037275       0.00189120
Si       1.75790342       1.24056205       3.50065579      -0.00005309      -0.00021238       0.00202429
Si       4.88269359       2.14262978       3.50064005       0.00002728      -0.00025678       0.00210873
Si       5.66391511       5.29980954       3.50062761       0.00014740       0.00007058       0.00218646
Si       3.32029098       7.55495811       3.50062644      -0.00004751       0.00002558       0.00219766
Si       4.10149060      10.71220291       3.50063032       0.00009577       0.00026557       0.00214149
Si       7.22635765      11.61429954       3.50063658       0.00014452       0.00002133       0.00205672
Si       8.00757695      14.77159135       3.50063694       0.00008176       0.00008892       0.00209078
Si       5.66390491      17.02679425       3.50063605       0.00021535       0.00010017       0.00209142
Si       6.44512567      20.18408261       3.50063636       0.00013165      -0.00011938       0.00207743
Si       9.57002712      21.08615919       3.50063667      -0.00000085      -0.00002283       0.00208926
Si      10.35125446      24.24345210       3.50063660       0.00003640      -0.00000773       0.00210454
Si       8.00757683      26.49865005       3.50063626       0.00008663       0.00013977       0.00205522
Si       8.78879677      29.65594435       3.50063699       0.00000338      -0.00000318       0.00208118
Si      11.91370428      30.55801685       3.50063701      -0.00004829       0.00006386       0.00206051
Si      12.69493072      33.71530969       3.50063725      -0.00001224       0.00016393       0.00206358
Si      10.35124706      35.97051372       3.50063670       0.00005012      -0.00006606       0.00209759
Si      11.13247194      39.12780345       3.50063674       0.00003175      -0.00005397       0.00210434
Si      14.25738064      40.02987648       3.50063698       0.00002386       0.00014366       0.00208625
Si      15.03860769      43.18717171       3.50063678       0.00004770       0.00013923       0.00208407
Si      12.69492400      45.44236965       3.50063625      -0.00006136      -0.00001417       0.00211923
Si      13.47615089      48.59966298       3.50063637      -0.00000141       0.00013205       0.00212478
Si      16.60105915      49.50173920       3.50063704      -0.00001992      -0.00008395       0.00206648
Si      17.38228465      52.65903023       3.50063651       0.00000740       0.00004369       0.00210077
Si      15.03860060      54.91423116       3.50063711      -0.00003496      -0.00004669       0.00203419
Si      15.81982786      58.07152452       3.50063652      -0.00002240      -0.00004520       0.00214188
Si      18.94473666      58.97359836       3.50063717       0.00003050      -0.00018199       0.00209571
Si      19.72596208      62.13089113       3.50063663       0.00007637       0.00018935       0.00211327
Si      17.38227674      64.38609361       3.50063656       0.00004277      -0.00005918       0.00209792
Si      18.16350421      67.54337702       3.50063541       0.00009456      -0.00007254       0.00216503
Si      21.28841363      68.44545761       3.50063651      -0.00003947      -0.00007801       0.00212868
Si      22.06963881      71.60275515       3.50063615       0.00013112      -0.00013982       0.00212697
Si      19.72595442      73.85794918       3.50063625      -0.00004229       0.00015304       0.00210964
Si      20.50718285      77.01524683       3.50063701      -0.00001807       0.00005570       0.00207204
Si      23.63209157      77.91732041       3.50063603      -0.00015437      -0.00013709       0.00212461
Si      24.41331673      81.07460648       3.50063710       0.00001154       0.00023631       0.00209819
Si      22.06962992      83.32980981       3.50063643       0.00010107       0.00010426       0.00210979
Si      22.85085954      86.48710884       3.50063658       0.00005736      -0.00006019       0.00206590
Si      25.97576598      87.38917778       3.50063680       0.00013628      -0.00002551       0.00212506
Si      26.75699546      90.54647106       3.50063680       0.00000133      -0.00000816       0.00206295
Si      24.41330947      92.80166896       3.50063670       0.00001866       0.00022656       0.00208723
Si      25.19453882      95.95896311       3.50063713       0.00008977       0.00012099       0.00205296
Si      28.31944556      96.86103224       3.50063578       0.00000935       0.00010841       0.00219727
Si      29.10067791     100.01832163       3.50063519      -0.00000470      -0.00025039       0.00207089
Si      26.75697046     102.27342353       3.50062370       0.00016752       0.00000917       0.00222791
Si      27.53825606     105.43056536       3.50065058       0.00014048       0.00047896       0.00190485
Si      10.35122374       0.78956896       3.50064984       0.00004193      -0.00048625       0.00199675
Si      11.13251052       3.94671596       3.50062334      -0.00012273       0.00007073       0.00225549
Si       8.78880612       6.20181641       3.50063573      -0.00002431       0.00029939       0.00202186
Si       9.57003571       9.35910106       3.50063747       0.00005450       0.00008574       0.00206812
Si      12.69494336      10.26117434       3.50063718      -0.00004283       0.00001447       0.00207442
Si      13.47617084      13.41846609       3.50063682      -0.00001802       0.00007148       0.00210097
Si      11.13248487      15.67366624       3.50063705      -0.00001009      -0.00002961       0.00207675
Si      11.91371278      18.83095874       3.50063672       0.00000788       0.00001827       0.00210220
Si      15.03862009      19.73303107       3.50063700      -0.00000133       0.00012083       0.00206787
Si      15.81984787      22.89032714       3.50063718      -0.00001592      -0.00005112       0.00205610
Si      13.47616106      25.14552655       3.50063694       0.00005744      -0.00016961       0.00206300
Si      14.25738924      28.30281933       3.50063631       0.00004197      -0.00007729       0.00212322
Si      17.38229694      29.20489253       3.50063658       0.00008539      -0.00011989       0.00212649
Si      18.16352478      32.36218673       3.50063737      -0.00002457      -0.00000191       0.00203994
Si      15.81983930      34.61738553       3.50063591       0.00000363      -0.00005318       0.00215377
Si      16.60106645      37.77467697       3.50063658      -0.00006001      -0.00002386       0.00210255
Si      19.72597480      38.67675348       3.50063626       0.00002770      -0.00009129       0.00209859
Si      20.50720049      41.83404186       3.50063676       0.00018021       0.00026983       0.00211523
Si      18.16351618      44.08924212       3.50063673       0.00003589       0.00017746       0.00206415
Si      18.94474390      47.24653909       3.50063707      -0.00006879      -0.00002556       0.00205665
Si      22.06965253      48.14861103       3.50063630      -0.00003013       0.00016989       0.00208773
Si      22.85087852      51.30590484       3.50063700       0.00010044       0.00003152       0.00206531
Si      20.50719476      53.56110414       3.50063657       0.00003459      -0.00003005       0.00212072
Si      21.28842177      56.71839883       3.50063751      -0.00004540      -0.00001079       0.00205878
Si      24.41333069      57.62047314       3.50063812      -0.00005016      -0.00002277       0.00198111
Si      25.19455762      60.77776364       3.50063601      -0.00008015       0.00000027       0.00216730
Si      22.85087261      63.03296500       3.50063808      -0.00001998      -0.00001254       0.00201268
Si      23.63209928      66.19026090       3.50063680      -0.00014261      -0.00004731       0.00210987
Si      26.75700762      67.09233132       3.50063643       0.00002007       0.00005511       0.00213981
Si      27.53823400      70.24962389       3.50063583      -0.00009293       0.00013110       0.00216295
Si      25.19455005      72.50482525       3.50063754       0.00002616      -0.00016365       0.00201834
Si      25.97577740      75.66212064       3.50063667      -0.00008695      -0.00030342       0.00211552
Si      29.10068682      76.56419522       3.50063595      -0.00006797      -0.00048431       0.00215758
Si      29.88191104      79.72147885       3.50063638       0.00004230       0.00035432       0.00217393
Si      27.53822763      81.97668266       3.50063631      -0.00002575       0.00015588       0.00210623
Si      28.31945162      85.13397442       3.50063771       0.00011212      -0.00001710       0.00197994
Si      31.44436158      86.03605343       3.50063690      -0.00003213      -0.00013487       0.00208350
Si      32.22559122      89.19334498       3.50063709       0.00015096       0.00003824       0.00203872
Si      29.88190321      91.44854969       3.50063558       0.00014140      -0.00014585       0.00222231
Si      30.66313108      94.60583653       3.50063664       0.00007303       0.00021126       0.00207143
Si      33.78803757      95.50791060       3.50063609       0.00011864      -0.00011115       0.00213555
Si      34.56926999      98.66519005       3.50063629       0.00005944      -0.00023419       0.00206687
Si      32.22557177     100.92031752       3.50062888       0.00005271       0.00021217       0.00218743
Si      33.00684650     104.07751674       3.50064554      -0.00008486       0.00016802       0.00209784
Si      36.13172127     104.97955032       3.50065047      -0.00024914       0.00003210       0.00197221
Si      16.60111117       2.59370678       3.50065362      -0.00010935      -0.00011357       0.00184046
Si      14.25736472       4.84874410       3.50062752       0.00041381       0.00012939       0.00221964
Si      15.03862742       8.00598492       3.50063599       0.00006215       0.00022805       0.00208912
Si      18.16353463       8.90804870       3.50063771       0.00001536       0.00004727       0.00206675
Si      18.94476436      12.06534114       3.50063686       0.00001155       0.00001311       0.00210491
Si      16.60107666      14.32053973       3.50063686       0.00004615      -0.00007029       0.00212196
Si      17.38230574      17.47783272       3.50063705       0.00005479       0.00005740       0.00209305
Si      20.50721231      18.37990674       3.50063758       0.00001520      -0.00011996       0.00202810
Si      21.28844195      21.53719951       3.50063697      -0.00000607       0.00007941       0.00206145
Si      18.94475541      23.79239995       3.50063676      -0.00005214      -0.00007791       0.00206575
Si      19.72598368      26.94969141       3.50063714      -0.00002794       0.00007462       0.00207090
Si      22.85089017      27.85176828       3.50063689      -0.00002439      -0.00014891       0.00208217
Si      23.63211890      31.00905831       3.50063738       0.00006793       0.00007453       0.00205943
Si      21.28843384      33.26425974       3.50063656       0.00000448       0.00000931       0.00210808
Si      22.06966006      36.42155292       3.50063693       0.00008809      -0.00003488       0.00209941
Si      25.19456779      37.32362630       3.50063739      -0.00002020      -0.00013419       0.00206412
Si      25.97579778      40.48091863       3.50063676      -0.00007370       0.00009353       0.00210156
Si      23.63211171      42.73611996       3.50063764      -0.00007019      -0.00012677       0.00204230
Si      24.41333711      45.89341325       3.50063588       0.00006605      -0.00013098       0.00219737
Si      27.53824596      46.79548478       3.50063676       0.00004631       0.00002951       0.00211199
Si      28.31947448      49.95277856       3.50063701      -0.00006767       0.00007678       0.00208097
Si      25.97578949      52.20797867       3.50063694      -0.00009785      -0.00003781       0.00205995
Si      26.75701680      55.36527496       3.50063738      -0.00004790      -0.00018002       0.00204142
Si      29.88192323      56.26734534       3.50063614       0.00010502      -0.00001903       0.00215016
Si      30.66315074      59.42464127       3.50063675       0.00007993      -0.00005640       0.00209409
Si      28.31946554      61.67983806       3.50063679       0.00006759       0.00013793       0.00207871
Si      29.10069401      64.83713679       3.50063776      -0.00001961      -0.00011484       0.00201188
Si      32.22560297      65.73920270       3.50063555       0.00007542       0.00007581       0.00217912
Si      33.00682827      68.89649617       3.50063664       0.00006214       0.00000210       0.00206899
Si      30.66314291      71.15169830       3.50063740       0.00005502       0.00007302       0.00211781
Si      31.44436980      74.30899259       3.50063654       0.00000906       0.00005993       0.00208396
Si      34.56927760      75.21106999       3.50063577      -0.00005290      -0.00013479       0.00215436
Si      35.35050662      78.36836100       3.50063718       0.00018929      -0.00014121       0.00208513
Si      33.00681878      80.62355870       3.50063548      -0.00000729       0.00000178       0.00217158
Si      33.78804566      83.78084972       3.50063832       0.00008969       0.00002973       0.00198283
Si      36.91295833      84.68292560       3.50063706      -0.00022092       0.00010184       0.00202980
Si      37.69418281      87.84021929       3.50063628      -0.00006410       0.00008608       0.00215695
Si      35.35049723      90.09541759       3.50063712      -0.00005785       0.00000819       0.00206518
Si      36.13172648      93.25271056       3.50063841       0.00017493      -0.00005631       0.00193765
Si      39.25662998      94.15478194       3.50063606       0.00015797      -0.00025794       0.00218653
Si      40.03786410      97.31207933       3.50063763      -0.00007253      -0.00036610       0.00204375
Si      37.69417153      99.56725828       3.50063674      -0.00015955      -0.00058033       0.00195261
Si      38.47540035     102.72447417       3.50062231       0.00008295       0.00049502       0.00232457
Si      41.60028748     103.62641375       3.50065242       0.00014650       0.00069915       0.00197394
Si      22.06968057       1.24057764       3.50064948       0.00007730      -0.00036022       0.00203818
Si      19.72599706       3.49564234       3.50062203      -0.00019339       0.00009096       0.00233565
Si      20.50722665       6.65286575       3.50063541       0.00002950       0.00038617       0.00207415
Si      23.63212657       7.55493092       3.50063651      -0.00009587       0.00014700       0.00204399
Si      24.41335736      10.71221651       3.50063671      -0.00000076       0.00004982       0.00210379
Si      22.06967211      12.96741462       3.50063668      -0.00003941      -0.00006891       0.00210084
Si      22.85090140      16.12470547       3.50063671      -0.00003841       0.00011998       0.00211852
Si      25.97580623      17.02678112       3.50063686       0.00006172      -0.00005215       0.00209598
Si      26.75703595      20.18407385       3.50063704       0.00000355      -0.00009434       0.00205838
Si      24.41334927      22.43927174       3.50063684      -0.00002319       0.00006097       0.00209980
Si      25.19457695      25.59656657       3.50063708       0.00010907       0.00000989       0.00206409
Si      28.31948489      26.49863956       3.50063674      -0.00004625       0.00000558       0.00209569
Si      29.10071312      29.65593251       3.50063692      -0.00000295       0.00005656       0.00207578
Si      26.75702512      31.91113179       3.50063644       0.00007262      -0.00001009       0.00213742
Si      27.53825510      35.06842621       3.50063640      -0.00000987      -0.00005571       0.00210784
Si      30.66316091      35.97050049       3.50063615       0.00009177      -0.00009144       0.00215214
Si      31.44439024      39.12779310       3.50063689       0.00015975       0.00011007       0.00208932
Si      29.10070251      41.38299205       3.50063727       0.00005786      -0.00009908       0.00203081
Si      29.88193393      44.54028446       3.50063657      -0.00000474       0.00026666       0.00213520
Si      33.00683798      45.44236136       3.50063569       0.00001016      -0.00003568       0.00220046
Si      33.78806543      48.59965418       3.50063662       0.00009200      -0.00008686       0.00209729
Si      31.44438337      50.85485255       3.50063710      -0.00004452       0.00007275       0.00205472
Si      32.22560713      54.01214490       3.50063767       0.00009131       0.00008632       0.00201508
Si      35.35051945      54.91421913       3.50063682      -0.00005617      -0.00009421       0.00206946
Si      36.13174354      58.07151565       3.50063585       0.00008494      -0.00021454       0.00219071
Si      33.78805916      60.32671444       3.50063692       0.00000429      -0.00006504       0.00211527
Si      34.56928460      63.48400679       3.50063748       0.00007238      -0.00002371       0.00204539
Si      37.69419340      64.38607750       3.50063739      -0.00000083       0.00002656       0.00201674
Si      38.47542154      67.54337437       3.50063647      -0.00006280      -0.00002746       0.00214201
Si      36.13173936      69.79857413       3.50063691      -0.00008690      -0.00018321       0.00211870
Si      36.91296413      72.95585950       3.50063627      -0.00000338       0.00045914       0.00211540
Si      40.03787446      73.85794315       3.50063734      -0.00009482      -0.00020323       0.00204013
Si      40.81909795      77.01522797       3.50063590       0.00003236      -0.00006515       0.00222114
Si      38.47541371      79.27043703       3.50063757      -0.00010655      -0.00012964       0.00202553
Si      39.25664476      82.42772565       3.50063677      -0.00007394       0.00006037       0.00203507
Si      42.38155089      83.32979882       3.50063762      -0.00011756       0.00005929       0.00205095
Si      43.16277906      86.48708717       3.50063653      -0.00000614       0.00016645       0.00212989
Si      40.81909479      88.74228616       3.50063753      -0.00012084       0.00045677       0.00209814
Si      41.60031832      91.89958558       3.50063700      -0.00008708       0.00031358       0.00196903
Si      44.72522911      92.80165944       3.50063817      -0.00000589       0.00007326       0.00199451
Si      45.50645074      95.95895186       3.50063714       0.00035011      -0.00011398       0.00210230
Si      43.16276722      98.21413490       3.50063632       0.00003481       0.00001553       0.00206009
Si      43.94403178     101.37138129       3.50062852      -0.00037265      -0.00021001       0.00207050
Si      47.06888592     102.27340222       3.50062296       0.00014512       0.00027063       0.00228592
Si      47.85017545     105.43055307       3.50064976      -0.00006334       0.00076833       0.00198155
Si      25.19455058       2.14260981       3.50064615       0.00008148      -0.00022260       0.00205079
Si      25.97582437       5.29979938       3.50062898      -0.00007629       0.00012667       0.00219642