3192
Lattice="64.96828500602774 0.0 0.0 0.0 112.52837051105533 0.0 0.0 0.0 100.0" Properties=species:S:1:pos:R:3:forces:R:3 energy=-1091295.129623413 free_energy=-1091295.129623413 pbc="T T T"
Si       0.12226036      98.85071262       3.50064799      -0.00027022       0.00003348       0.00197069
Si       2.07618540     105.05535769       3.50065037      -0.00040772      -0.00069206       0.00184072
Si       3.05308204     108.15759116       3.50061398      -0.00036756      -0.00037284       0.00248624
Si       0.85492516     110.55465343       3.50066460      -0.00021525      -0.00000063       0.00174524
Si       1.58770972      84.74937181       3.50064903      -0.00038294      -0.00034163       0.00203747
Si       2.56457193      87.85165948       3.50062526       0.00015072       0.00004950       0.00223212
Si       0.36648428      90.24889246       3.50064711      -0.00018214       0.00001327       0.00204892
Si       1.34342422      93.35117369       3.50064405      -0.00011472       0.00010414       0.00205060
Si       4.51850580      94.05627148       3.50063080       0.00010811      -0.00025842       0.00217769
Si       5.49542660      97.15857302       3.50063640       0.00029772       0.00009307       0.00197037
Si       3.29731055      99.55582093       3.50062705       0.00007349      -0.00041713       0.00214181
Si       4.27424742     102.65808458       3.50063073       0.00006167       0.00067612       0.00216129
Si       7.44937067     103.36317401       3.50063704       0.00018827       0.00008502       0.00203972
Si       8.42633953     106.46547519       3.50063645       0.00013903      -0.00054023       0.00198666
Si       6.22812991     108.86261298       3.50062127       0.00044149      -0.00008411       0.00217993
Si       7.20517653     111.96474660       3.50064897       0.00016681       0.00060960       0.00200301
Si       1.09923589      64.44334535       3.50064695      -0.00039042       0.00002866       0.00205763
Si       2.07617340      67.54563704       3.50064378      -0.00016747      -0.00053268       0.00208171
Si       0.85500936      73.04516647       3.50064776      -0.00018425       0.00037598       0.00194007
Si       4.03006051      73.75027435       3.50062659       0.00002991       0.00001578       0.00218815
Si       5.00699582      76.85255140       3.50062925       0.00019220      -0.00000774       0.00221467
Si       2.80893451      79.24982469       3.50065002      -0.00026343      -0.00012334       0.00196576
Si       3.78579309      82.35212259       3.50062606       0.00006220       0.00008131       0.00221148
Si       6.96090380      83.05718314       3.50063678       0.00022429      -0.00005663       0.00197545
Si       7.93786510      86.15948797       3.50063721       0.00013132       0.00026258       0.00206182
Si       5.73968019      88.55672419       3.50063551       0.00035291      -0.00006919       0.00212135
Si       6.71664808      91.65902991       3.50063699       0.00014109       0.00006976       0.00202774
Si       9.89180885      92.36409162       3.50063709      -0.00006658       0.00016293       0.00206327
Si      10.86878145      95.46640550       3.50063642       0.00001242      -0.00002085       0.00209877
Si       8.67058516      97.86363650       3.50063706      -0.00003074      -0.00018663       0.00212336
Si       9.64755962     100.96594542       3.50063748       0.00003951       0.00022342       0.00202438
Si      12.82272476     101.67100893       3.50063773      -0.00000292      -0.00016058       0.00207330
Si      13.79970405     104.77330984       3.50063721       0.00012807      -0.00010013       0.00200200
Si      11.60149093     107.17046042       3.50062842      -0.00002597      -0.00003135       0.00214763
Si      12.57851995     110.27266040       3.50064794      -0.00016066       0.00044006       0.00211308
Si      15.75364175     110.97768087       3.50064933      -0.00010628       0.00018200       0.00202519
Si       0.61076178      44.13734667       3.50064705      -0.00035020      -0.00003842       0.00206670
Si       1.58769998      47.23962778       3.50064351      -0.00013201       0.00004732       0.00208630
Si       0.36653626      52.73917064       3.50064818      -0.00028772      -0.00001103       0.00195734
Si       3.54158547      53.44427419       3.50062628       0.00006422      -0.00007011       0.00218416
Si       4.51852304      56.54654466       3.50062979       0.00013009       0.00036662       0.00212624
Si       2.32046162      58.94382051       3.50064998      -0.00023346       0.00002024       0.00193377
Si       3.29732194      62.04611940       3.50062471       0.00007590      -0.00024790       0.00226050
Si       6.47243038      62.75118054       3.50063578       0.00024528       0.00011329       0.00204067
Si       7.44939734      65.85348344       3.50063602       0.00008961      -0.00016155       0.00209711
Si       5.25125656      68.25072728       3.50063076       0.00001576      -0.00017982       0.00217325
Si       6.22817567      71.35302796       3.50063626       0.00027009       0.00002214       0.00204362
Si       9.40333385      72.05809093       3.50063793       0.00008856      -0.00001810       0.00204750
Si      10.38031024      75.16039793       3.50063584      -0.00002515       0.00003627       0.00214343
Si       8.18211944      77.55763518       3.50063615       0.00020695       0.00003252       0.00216955
Si       9.15908660      80.65995216       3.50063664       0.00010927      -0.00021325       0.00210674
Si      12.33425134      81.36500894       3.50063775       0.00001156      -0.00000993       0.00202668
Si      13.31122599      84.46732006       3.50063650      -0.00004663      -0.00008469       0.00214471
Si      11.11303063      86.86454947       3.50063709      -0.00013874       0.00012155       0.00201793
Si      12.09000437      89.96686411       3.50063602      -0.00005049      -0.00015879       0.00217756
Si      15.26516850      90.67192649       3.50063585       0.00008057      -0.00033253       0.00219711
Si      16.24214397      93.77423663       3.50063643      -0.00002397      -0.00007176       0.00211095
Si      14.04394711      96.17146220       3.50063730      -0.00007813       0.00018070       0.00202367
Si      15.02092198      99.27377701       3.50063778       0.00002804       0.00010664       0.00200045
Si      18.19608726      99.97883796       3.50063694      -0.00004923      -0.00011674       0.00208555
Si      19.17306318     103.08115003       3.50063719      -0.00003992      -0.00009388       0.00206473
Si      16.97486331     105.47836744       3.50063694      -0.00000599      -0.00042492       0.00200735
Si      17.95187893     108.58061439       3.50062717      -0.00031598       0.00011677       0.00214620
Si      21.12698221     109.28563187       3.50062358       0.00017060       0.00046879       0.00220648
Si      22.10403649     112.38778589       3.50064994      -0.00000257       0.00042318       0.00195747
Si       0.12228773      23.83134486       3.50064752      -0.00020909       0.00004016       0.00200542
Si       1.09923265      26.93361946       3.50064300      -0.00008294      -0.00003504       0.00201911
Si       3.05321034      33.13827934       3.50065028      -0.00025517       0.00000681       0.00194570
Si       4.03006898      36.24057856       3.50062524       0.00003468      -0.00000951       0.00229132
Si       1.83198442      38.63782348       3.50064969      -0.00035510      -0.00017977       0.00193851
Si       2.80884794      41.74011668       3.50062468       0.00011105      -0.00002737       0.00230949
Si       5.98395617      42.44517985       3.50063639       0.00029277      -0.00002734       0.00203451
Si       6.96092372      45.54748414       3.50063602       0.00017802      -0.00011139       0.00209430
Si       4.76278206      47.94472479       3.50063083       0.00007291      -0.00010099       0.00216131
Si       5.73970187      51.04703015       3.50063621       0.00027114      -0.00007207       0.00202805
Si       8.91486096      51.75209121       3.50063722      -0.00003993       0.00006832       0.00205148
Si       9.89183571      54.85440345       3.50063672      -0.00001090      -0.00006819       0.00211582
Si       7.69364695      57.25163188       3.50063682       0.00015927       0.00019027       0.00205366
Si       8.67061459      60.35394137       3.50063708       0.00003330       0.00011982       0.00201270
Si      11.84577852      61.05900702       3.50063719       0.00001591      -0.00017822       0.00207563
Si      12.82275249      64.16131626       3.50063734      -0.00001543      -0.00002170       0.00207565
Si      10.62455645      66.55855414       3.50063671       0.00000768      -0.00006236       0.00207831
Si      11.60153048      69.66085909       3.50063671       0.00002603       0.00006103       0.00210579
Si      14.77669578      70.36592316       3.50063703      -0.00003528      -0.00007826       0.00208339
Si      15.75367090      73.46822885       3.50063673       0.00001810       0.00004197       0.00209511
Si      13.55547293      75.86546559       3.50063669      -0.00002739      -0.00006449       0.00211750
Si      14.53244847      78.96777485       3.50063681      -0.00000880       0.00008191       0.00211310
Si      17.70761337      79.67283972       3.50063693       0.00002724      -0.00006053       0.00209242
Si      18.68458768      82.77514948       3.50063644       0.00009278       0.00004741       0.00212889
Si      16.48639107      85.17237585       3.50063664       0.00009267       0.00012198       0.00212398
Si      17.46336575      88.27469201       3.50063692       0.00004820       0.00017094       0.00208028
Si      20.63853450      88.97975361       3.50063642      -0.00018573      -0.00007576       0.00212735
Si      21.61550594      92.08206551       3.50063625       0.00007928       0.00002271       0.00212629
Si      19.41730847      94.47929249       3.50063635       0.00009258       0.00004968       0.00213363
Si      20.39428416      97.58160644       3.50063718       0.00005274       0.00015970       0.00202204
Si      23.56945030      98.28666245       3.50063675      -0.00002522       0.00028115       0.00210875
Si      24.54642282     101.38897921       3.50063805       0.00012678       0.00003199       0.00201463
Si      22.34822541     103.78621030       3.50063625       0.00015748      -0.00016733       0.00218627
Si      23.32520336     106.88851084       3.50063554       0.00012880      -0.00031326       0.00199988
Si      26.50035298     107.59350014       3.50062814       0.00018414      -0.00028369       0.00214699
Si      27.47738531     110.69568905       3.50064925      -0.00005202       0.00044169       0.00199788
Si       0.61081726       6.62764516       3.50064618      -0.00019425       0.00034714       0.00194972
Si       2.56473747      12.83228008       3.50065024      -0.00032521      -0.00016967       0.00193639
Si       3.54159434      15.93457701       3.50062586       0.00010557       0.00001066       0.00226311
Si       1.34351260      18.33182448       3.50064912      -0.00050033      -0.00021508       0.00200343
Si       2.32037444      21.43411471       3.50062529       0.00011195       0.00003127       0.00225728
Si       5.49548284      22.13917811       3.50063615       0.00027142      -0.00000250       0.00205693
Si       6.47244990      25.24148350       3.50063688       0.00017516      -0.00005888       0.00206706
Si       4.27430688      27.63872035       3.50063039       0.00012036      -0.00018431       0.00212052
Si       5.25126966      30.74099680       3.50063011       0.00013669       0.00020300       0.00217889
Si       8.42639448      31.44609067       3.50063669       0.00017126      -0.00004342       0.00204366
Si       9.40336233      34.54840403       3.50063696       0.00004682      -0.00014693       0.00209240
Si       7.20517869      36.94563499       3.50063576       0.00026293       0.00004158       0.00206897
Si       8.18214037      40.04794607       3.50063682       0.00010374       0.00000758       0.00208024
Si      11.35730544      40.75300550       3.50063702      -0.00005948      -0.00003086       0.00207057
Si      12.33427956      43.85531604       3.50063741      -0.00004236       0.00007727       0.00205354
Si      10.13608355      46.25255031       3.50063749       0.00002687      -0.00015654       0.00205703
Si      11.11305757      49.35486066       3.50063619      -0.00004536      -0.00014198       0.00215657
Si      14.28822167      50.05992089       3.50063676       0.00009885      -0.00011935       0.00213281
Si      15.26519782      53.16223306       3.50063674       0.00002834       0.00004515       0.00211964
Si      13.06699958      55.55946439       3.50063655       0.00003734       0.00004349       0.00213642
Si      14.04397446      58.66177139       3.50063680       0.00002659       0.00034641       0.00206675
Si      17.21914026      59.36683689       3.50063642      -0.00003961      -0.00010738       0.00214415
Si      18.19611631      62.46914552       3.50063746       0.00001608       0.00010311       0.00201875
Si      15.99791814      64.86638846       3.50063701       0.00008290      -0.00014937       0.00208735
Si      16.97489206      67.96868611       3.50063646       0.00011835       0.00008659       0.00210498
Si      20.15005784      68.67375052       3.50063739      -0.00002652      -0.00018973       0.00202961
Si      21.12703274      71.77606524       3.50063639       0.00000022      -0.00007197       0.00215676
Si      18.92883559      74.17329373       3.50063725       0.00003268      -0.00004604       0.00207958
Si      19.90581164      77.27560514       3.50063689       0.00000999       0.00008383       0.00210896
Si      23.08097576      77.98066691       3.50063737       0.00002514      -0.00004620       0.00208932
Si      24.05795128      81.08297844       3.50063643       0.00004666       0.00004751       0.00212358
Si      21.85975490      83.48020880       3.50063734      -0.00001548      -0.00006441       0.00209121
Si      22.83672945      86.58252194       3.50063721      -0.00000303       0.00005283       0.00204620
Si      26.01189454      87.28758077       3.50063668       0.00004872      -0.00006206       0.00211068
Si      26.98886882      90.38989519       3.50063661       0.00005664       0.00005255       0.00211507
Si      24.79067506      92.78712626       3.50063787      -0.00003844      -0.00008277       0.00205382
Si      25.76764721      95.88943632       3.50063676       0.00006395       0.00000635       0.00202677
Si      28.94281258      96.59449728       3.50063715       0.00002838      -0.00008498       0.00206776
Si      29.91978976      99.69680586       3.50063629      -0.00018051       0.00008374       0.00212583
Si      27.72159258     102.09403697       3.50063834      -0.00014648      -0.00004398       0.00200838
Si      28.69856890     105.19634150       3.50063748       0.00024212      -0.00022022       0.00196853
Si      31.87372652     105.90139511       3.50063692      -0.00008221      -0.00058616       0.00198945
Si      32.85070397     109.00362893       3.50062072       0.00008183      -0.00022688       0.00235895
Si      30.65250566     111.40072062       3.50064987      -0.00010688       0.00024375       0.00198584
Si       1.83197729       1.12831955       3.50065622       0.00003243      -0.00014377       0.00202314
Si       5.00701607       1.83338114       3.50064288       0.00013153      -0.00016799       0.00205806
Si       5.98399201       4.93556968       3.50062713       0.00014974       0.00001627       0.00215570
Si       3.78585717       7.33274180       3.50062593      -0.00002175       0.00001519       0.00216983
Si       4.76279885      10.43500208       3.50062995       0.00013599       0.00029059       0.00217609
Si       7.93792221      11.14009042       3.50063673       0.00018757       0.00003742       0.00206064
Si       8.91488942      14.24240135       3.50063689       0.00003490       0.00001035       0.00211229
Si       6.71670532      16.63963556       3.50063591       0.00028446       0.00001735       0.00205126
Si       7.69366715      19.74194386       3.50063686       0.00004452       0.00004035       0.00210238
Si      10.86883179      20.44700467       3.50063660      -0.00003414      -0.00002207       0.00211532
Si      11.84580722      23.54931697       3.50063706      -0.00001674       0.00003994       0.00207442
Si       9.64761005      25.94654764       3.50063766       0.00003474      -0.00008262       0.00203329
Si      10.62458431      29.04885903       3.50063694       0.00002462      -0.00001588       0.00210660
Si      13.79974895      29.75392024       3.50063738      -0.00001836       0.00002795       0.00207809
Si      14.77672412      32.85622991       3.50063633      -0.00002034      -0.00004591       0.00210781
Si      12.57852701      35.25346493       3.50063647      -0.00001696      -0.00010936       0.00214573
Si      13.55550313      38.35577386       3.50063600      -0.00002405       0.00009036       0.00215006
Si      16.73066723      39.06083469       3.50063693      -0.00000942       0.00010917       0.00210212
Si      17.70764206      42.16314639       3.50063670      -0.00000174       0.00002471       0.00211621
Si      15.50944522      44.56037855       3.50063667       0.00000080      -0.00004797       0.00210412
Si      16.48641958      47.66269059       3.50063692       0.00006024       0.00001036       0.00208351
Si      19.66158480      48.36775192       3.50063668       0.00004741      -0.00005231       0.00209706
Si      20.63855924      51.47006123       3.50063723       0.00008459      -0.00011893       0.00205370
Si      18.44036293      53.86729421       3.50063649      -0.00000453      -0.00019535       0.00214063
Si      19.41733807      56.96960212       3.50063648       0.00003107       0.00032309       0.00207826
Si      22.59250348      57.67466442       3.50063731      -0.00001369       0.00012684       0.00202770
Si      23.56947669      60.77698031       3.50063731       0.00001738      -0.00026215       0.00212086
Si      21.37128252      63.17420728       3.50063562      -0.00007808       0.00009729       0.00213108
Si      22.34825671      66.27651904       3.50063767      -0.00011049       0.00007965       0.00202884
Si      25.52342192      66.98157770       3.50063701      -0.00005905       0.00032606       0.00213777
Si      26.50039645      70.08389039       3.50063626       0.00000755       0.00010560       0.00207438
Si      24.30219860      72.48112806       3.50063641       0.00007517      -0.00008502       0.00210718
Si      25.27917378      75.58343341       3.50063686       0.00005937       0.00006893       0.00210825
Si      28.45434105      76.28849806       3.50063781      -0.00011794      -0.00007042       0.00203691
Si      29.43131409      79.39080800       3.50063721       0.00000631       0.00006231       0.00203918
Si      27.23311725      81.78803795       3.50063659      -0.00004179      -0.00006493       0.00209672
Si      28.21009165      84.89035264       3.50063667      -0.00001882       0.00004886       0.00210080
Si      31.38525766      85.59541526       3.50063667      -0.00002046      -0.00004594       0.00210892
Si      32.36223352      88.69772339       3.50063723      -0.00000995       0.00005612       0.00206384
Si      30.16403551      91.09495257       3.50063658      -0.00003645      -0.00005381       0.00210272
Si      31.14101044      94.19726815       3.50063636      -0.00001123       0.00006537       0.00210048
Si      34.31617598      94.90232567       3.50063725      -0.00008976      -0.00004167       0.00208608
Si      35.29315294      98.00464070       3.50063705       0.00002479      -0.00005410       0.00200790
Si      33.09495170     100.40187045       3.50063744       0.00011339      -0.00020889       0.00206262
Si      34.07192972     103.50417631       3.50063692      -0.00010231       0.00024479       0.00213496
Si      37.24709438     104.20922948       3.50063621      -0.00007776      -0.00011483       0.00208836
Si      38.22410576     107.31148328       3.50062672      -0.00014556      -0.00006195       0.00225142
Si      36.02583676     109.70854444       3.50065392       0.00024902       0.00013355       0.00189485
Si      10.38030336       0.14128601       3.50064981       0.00000600      -0.00037693       0.00192581
Si      11.35735629       3.24343124       3.50062262      -0.00017572       0.00005743       0.00225231
Si       9.15913446       5.64055917       3.50063607      -0.00001262       0.00029273       0.00201666
Si      10.13611117       8.74286092       3.50063811       0.00006614       0.00004363       0.00205280
Si      13.31127489       9.44792108       3.50063723       0.00002101       0.00005030       0.00209058
Si      14.28825067      12.55023189       3.50063709      -0.00000140       0.00000565       0.00208231
Si      12.09005344      14.94746220       3.50063684       0.00001281      -0.00000488       0.00210908
Si      13.06702808      18.04977535       3.50063697       0.00002641      -0.00009715       0.00207530
Si      16.24219362      18.75483455       3.50063679       0.00000037      -0.00005826       0.00210470
Si      17.21916813      21.85714621       3.50063681       0.00003500       0.00004289       0.00210423
Si      15.02097143      24.25437691       3.50063659      -0.00000705      -0.00002358       0.00210301
Si      15.99794615      27.35668805       3.50063708       0.00002013       0.00013214       0.00207720
Si      19.17311179      28.06174931       3.50063698       0.00002866       0.00002569       0.00207686
Si      20.15008591      31.16406173       3.50063666       0.00004636      -0.00004454       0.00209860
Si      17.95189116      33.56129283       3.50063650      -0.00001580      -0.00012908       0.00214920
Si      18.92886360      36.66360491       3.50063685       0.00012549       0.00005678       0.00210407
Si      22.10403008      37.36866270       3.50063646      -0.00005816      -0.00001479       0.00208455
Si      23.08100482      40.47097544       3.50063730      -0.00002144       0.00007222       0.00206280
Si      20.88280748      42.86820864       3.50063678       0.00001763      -0.00012135       0.00213454
Si      21.85978177      45.97052061       3.50063693       0.00005218       0.00005129       0.00207382
Si      25.03494755      46.67558076       3.50063699      -0.00002493      -0.00003087       0.00206676
Si      26.01192377      49.77789161       3.50063646      -0.00003655      -0.00000087       0.00212517
Si      23.81372694      52.17512253       3.50063694      -0.00005214      -0.00000840       0.00209971
Si      24.79070178      55.27743797       3.50063639      -0.00002202      -0.00022973       0.00209685
Si      27.96586574      55.98249471       3.50063668      -0.00004082      -0.00013662       0.00207879
Si      28.94284001      59.08480803       3.50063664      -0.00001609       0.00005019       0.00212499
Si      26.74464476      61.48203672       3.50063716      -0.00007666       0.00000047       0.00207176
Si      27.72161858      64.58434690       3.50063729      -0.00007729      -0.00006602       0.00201935
Si      30.89678430      65.28940721       3.50063639       0.00012823       0.00019791       0.00210000
Si      31.87376063      68.39171839       3.50063753       0.00003237       0.00033436       0.00198982
Si      29.67556110      70.78895498       3.50063623       0.00001047      -0.00013740       0.00216445
Si      30.65253688      73.89126630       3.50063563      -0.00002340       0.00003451       0.00215928
Si      33.82770159      74.59632451       3.50063760      -0.00000551       0.00030005       0.00211226
Si      34.80467800      77.69863509       3.50063688      -0.00002091       0.00037886       0.00207008
Si      32.60647983      80.09586757       3.50063712       0.00003629      -0.00012297       0.00209486
Si      33.58345458      83.19818206       3.50063686       0.00004218       0.00003738       0.00209545
Si      36.75861926      83.90324371       3.50063695       0.00007598      -0.00014457       0.00204728
Si      37.73559490      87.00555679       3.50063670      -0.00002928      -0.00005960       0.00210342
Si      35.53739864      89.40278338       3.50063633      -0.00007630      -0.00005277       0.00213367
Si      36.51437170      92.50509491       3.50063752       0.00015582       0.00006371       0.00204825
Si      39.68953902      93.21015776       3.50063736      -0.00008976      -0.00005308       0.00208272
Si      40.66651374      96.31247056       3.50063652      -0.00007988       0.00005067       0.00209469
Si      38.46831665      98.70969860       3.50063640       0.00007781      -0.00008018       0.00212342
Si      39.44529118     101.81200936       3.50063700       0.00016035      -0.00031879       0.00207654
Si      42.62045591     102.51706596       3.50063723       0.00002681       0.00013506       0.00202948
Si      43.59743488     105.61937420       3.50063617       0.00006139      -0.00036079       0.00207515
Si      41.39922466     108.01653341       3.50062757       0.00022383      -0.00039380       0.00218628
Si      42.37626502     111.11871037       3.50064619      -0.00000913      -0.00005659       0.00206259
Si      45.55137598     111.82375153       3.50064913       0.00006785       0.00022685       0.00203967
Si      16.73069464       1.55138670       3.50064962       0.00020531      -0.00026276       0.00201337
Si      14.53245787       3.94845345       3.50062635       0.00026890       0.00011069       0.00221940
Si      15.50947361       7.05070079       3.50063673       0.00004412       0.00029232       0.00205314
Si      18.68463223       7.75575913       3.50063685      -0.00006194       0.00016640       0.00205724
Si      19.66161277      10.85806258       3.50063712      -0.00000151       0.00005948       0.00208734
Si      17.46341532      13.25529185       3.50063686       0.00001346      -0.00001023       0.00210134
Si      18.44039088      16.35760481       3.50063696      -0.00003886      -0.00004087       0.00207785
Si      21.61555651      17.06266340       3.50063705      -0.00000586      -0.00005513       0.00208959
Si      22.59253170      20.16497518       3.50063667       0.00001777       0.00001238       0.00211626
Si      20.39433355      22.56220703       3.50063691       0.00002978      -0.00002579       0.00210127
Si      21.37130898      25.66451878       3.50063662      -0.00003522      -0.00002647       0.00211896
Si      24.54647403      26.36957967       3.50063641       0.00000880      -0.00004430       0.00211693
Si      25.52344973      29.47189208       3.50063660       0.00000154       0.00001212       0.00211785
Si      23.32525179      31.86912142       3.50063706      -0.00003681      -0.00003716       0.00210506
Si      24.30222651      34.97143410       3.50063667       0.00000119      -0.00008297       0.00208528
Si      27.47739301      35.67649345       3.50063713      -0.00002706      -0.00003358       0.00207660
Si      28.45436872      38.77880485       3.50063644       0.00005287       0.00008413       0.00209997
Si      26.25616967      41.17603717       3.50063671      -0.00001446      -0.00005278       0.00208760
Si      27.23314551      44.27834882       3.50063744       0.00005797       0.00006439       0.00204269
Si      30.40831100      44.98340873       3.50063684      -0.00003279      -0.00002433       0.00209789
Si      31.38528622      48.08572215       3.50063713      -0.00002922      -0.00009165       0.00207538
Si      29.18708863      50.48295366       3.50063713       0.00006649       0.00005318       0.00208200
Si      30.16406410      53.58526484       3.50063678      -0.00003177      -0.00009255       0.00209862
Si      33.33922920      54.29032609       3.50063753      -0.00002025      -0.00006587       0.00204855
Si      34.31620340      57.39263473       3.50063517       0.00013323       0.00003476       0.00224560
Si      32.11800704      59.78986986       3.50063595      -0.00002854      -0.00017086       0.00213596
Si      33.09497929      62.89217732       3.50063697       0.00025862       0.00012961       0.00211025
Si      36.27014870      63.59723869       3.50063711      -0.00003820       0.00019052       0.00208765
Si      37.24712213      66.69955453       3.50063624      -0.00004424      -0.00010853       0.00206419
Si      35.04892561      69.09678491       3.50063572      -0.00017954      -0.00035375       0.00215714
Si      36.02589883      72.19909639       3.50063622       0.00008630      -0.00005498       0.00213823
Si      39.20106604      72.90415476       3.50063808       0.00003535       0.00005295       0.00202151
Si      40.17804055      76.00646763       3.50063652      -0.00001243      -0.00003376       0.00212256
Si      37.97984413      78.40369890       3.50063769      -0.00009108      -0.00010429       0.00201325
Si      38.95681912      81.50600942       3.50063719      -0.00010980      -0.00004513       0.00203249
Si      42.13198259      82.21107391       3.50063728       0.00013438      -0.00021347       0.00212153
Si      43.10895731      85.31338421       3.50063669      -0.00000318      -0.00000104       0.00203389
Si      40.91076216      87.71061152       3.50063647      -0.00006775       0.00019027       0.00207201
Si      41.88773570      90.81292471       3.50063688       0.00006691       0.00003129       0.00215253
Si      45.06290278      91.51798724       3.50063742      -0.00003627      -0.00010822       0.00203420
Si      46.03987720      94.62030075       3.50063648      -0.00002995      -0.00005523       0.00209398