3624
Lattice="69.2251739680331 0.0 0.0 0.0 119.90151847542779 0.0 0.0 0.0 100.0" Properties=species:S:1:pos:R:3:forces:R:3 energy=-1238989.2069244385 free_energy=-1238989.2069244385 pbc="T T T"
Si       0.74503410     117.88381234       3.50066442      -0.00017791       0.00038040       0.00197359
Si       0.28666677     100.67951632       3.50064853      -0.00038723      -0.00018830       0.00200364
Si       2.57888947     106.76730407       3.50065087      -0.00042351      -0.00003696       0.00200760
Si       3.72488555     109.81118508       3.50062477       0.00002528      -0.00012296       0.00230336
Si       1.66197971     112.32568389       3.50065033      -0.00039923      -0.00054114       0.00184226
Si       2.80802019     115.36949168       3.50061493      -0.00012639      -0.00051967       0.00246116
Si       6.01704651     115.89884150       3.50062466       0.00050898      -0.00032596       0.00218676
Si       7.16323699     118.94256263       3.50064855       0.00026031       0.00019815       0.00196048
Si       0.97433159      86.51891338       3.50065135      -0.00046436      -0.00003886       0.00190673
Si       2.12033193      89.56277698       3.50062457       0.00012947       0.00033223       0.00220572
Si       0.05742647      92.07727988       3.50064878      -0.00036330       0.00007440       0.00200468
Si       1.20350658      95.12113196       3.50064363      -0.00016487       0.00018344       0.00199532
Si       4.41255684      95.65053343       3.50063267       0.00012463      -0.00016045       0.00202007
Si       5.55862215      98.69441374       3.50063688       0.00028392      -0.00036534       0.00198968
Si       3.49568539     101.20892449       3.50062543       0.00003479      -0.00018682       0.00215979
Si       4.64176255     104.25276205       3.50062983       0.00017750       0.00029383       0.00215392
Si       7.85085858     104.78215735       3.50063639       0.00018035       0.00006252       0.00209076
Si       8.99697320     107.82603592       3.50063716       0.00006785      -0.00003417       0.00208103
Si       6.93396376     110.34054473       3.50063597       0.00029156      -0.00016890       0.00204547
Si       8.08007572     113.38440770       3.50063775       0.00015998      -0.00007345       0.00199284
Si      11.28920254     113.91376853       3.50063418      -0.00017463      -0.00020193       0.00211681
Si      12.43532532     116.95756208       3.50062200       0.00012145      -0.00026932       0.00225685
Si      10.37230588     119.47192566       3.50065079       0.00001614       0.00031714       0.00196446
Si       0.51591599      69.31434262       3.50064835      -0.00029824       0.00011285       0.00199687
Si       2.80813869      75.40213981       3.50065051      -0.00064185       0.00008405       0.00194847
Si       3.95413349      78.44601552       3.50062425       0.00007275      -0.00005211       0.00233174
Si       1.89123049      80.96052678       3.50064995      -0.00030316       0.00002273       0.00197489
Si       3.03723238      84.00439650       3.50062472       0.00010098       0.00025574       0.00232431
Si       6.24631098      84.53375580       3.50063540       0.00028724       0.00016322       0.00211598
Si       7.39241927      87.57764310       3.50063609       0.00008692      -0.00014255       0.00215571
Si       5.32940935      90.09215068       3.50063619       0.00031838      -0.00005209       0.00202072
Si       6.47552338      93.13602470       3.50063630       0.00013322       0.00001335       0.00204459
Si       9.68465427      93.66538408       3.50063731       0.00006632      -0.00003016       0.00204939
Si      10.83077464      96.70927117       3.50063725      -0.00001403       0.00002044       0.00208303
Si       8.76775187      99.22377575       3.50063724       0.00001734      -0.00009819       0.00207297
Si       9.91387432     102.26766031       3.50063715       0.00002102      -0.00017848       0.00208662
Si      13.12300977     102.79700910       3.50063662       0.00014468       0.00009081       0.00220631
Si      14.26913095     105.84090233       3.50063686       0.00013150       0.00004659       0.00208356
Si      12.20610904     108.35540715       3.50063726       0.00000128      -0.00018774       0.00205567
Si      13.35223187     111.39928300       3.50063787       0.00001461       0.00005655       0.00204987
Si      16.56136639     111.92862781       3.50063690       0.00001375      -0.00037642       0.00203839
Si      17.70752653     114.97244476       3.50062709      -0.00024296       0.00038671       0.00221797
Si      15.64442306     117.48677574       3.50065441       0.00022819       0.00025434       0.00186238
Si       1.20358086      55.15374126       3.50065066      -0.00052851      -0.00014021       0.00193813
Si       2.34958125      58.19761343       3.50062437       0.00008066      -0.00008960       0.00230301
Si       0.28667557      60.71210832       3.50064962      -0.00022711      -0.00000179       0.00187734
Si       1.43275595      63.75595946       3.50064414      -0.00012207       0.00009508       0.00199924
Si       4.64180692      64.28536347       3.50063055       0.00008451      -0.00006774       0.00213795
Si       5.78787058      67.32922915       3.50063698       0.00026128       0.00010023       0.00199731
Si       3.72493460      69.84374909       3.50062589       0.00006409      -0.00017890       0.00217920
Si       4.87101299      72.88759232       3.50062885       0.00012576       0.00000983       0.00222817
Si       8.08010877      73.41698672       3.50063655       0.00021668       0.00002357       0.00208287
Si       9.22622215      76.46086441       3.50063796       0.00006612       0.00000465       0.00203422
Si       7.16321209      78.97536648       3.50063670       0.00026974       0.00037808       0.00199383
Si       8.30932129      82.01925495       3.50063727      -0.00004190      -0.00000558       0.00208848
Si      11.51845737      82.54861621       3.50063775      -0.00006173      -0.00001279       0.00200269
Si      12.66457833      85.59249323       3.50063579       0.00004787       0.00005319       0.00219813
Si      10.60155596      88.10699756       3.50063764      -0.00005255       0.00030703       0.00206033
Si      11.74767730      91.15088424       3.50063768      -0.00005458      -0.00008910       0.00203584
Si      14.95681422      91.68024834       3.50063677      -0.00006278      -0.00012265       0.00212781
Si      16.10293552      94.72411995       3.50063729      -0.00002949       0.00022034       0.00201263
Si      14.03991292      97.23862594       3.50063714      -0.00003447       0.00000178       0.00210628
Si      15.18603299     100.28251751       3.50063705       0.00008287      -0.00003999       0.00205910
Si      18.39517016     100.81187676       3.50063795      -0.00002313       0.00005487       0.00199989
Si      19.54129421     103.85575327       3.50063598      -0.00002117       0.00004040       0.00217708
Si      17.47826982     106.37025362       3.50063665      -0.00011490      -0.00004957       0.00210997
Si      18.62439013     109.41414014       3.50063697       0.00007408       0.00004665       0.00208135
Si      21.83353002     109.94350413       3.50063771      -0.00008625      -0.00020360       0.00203816
Si      22.97965443     112.98736576       3.50063675       0.00007671      -0.00000444       0.00208334
Si      20.91661295     115.50179727       3.50062604       0.00011415      -0.00038998       0.00221419
Si      22.06281287     118.54553075       3.50064803      -0.00001587       0.00049700       0.00206580
Si      25.27188680     119.07488541       3.50065019      -0.00010315       0.00041904       0.00198692
Si       0.74516631      37.94917436       3.50064813      -0.00035404       0.00020801       0.00198352
Si       3.03738736      44.03697065       3.50065090      -0.00034836      -0.00008766       0.00199187
Si       4.18338251      47.08084356       3.50062481       0.00015273       0.00005309       0.00226672
Si       2.12048138      49.59535796       3.50065045      -0.00035907      -0.00018345       0.00199753
Si       3.26648084      52.63922756       3.50062474       0.00008479       0.00008099       0.00231391
Si       6.47555995      53.16858703       3.50063581       0.00030718      -0.00000596       0.00202479
Si       7.62166805      56.21247023       3.50063702       0.00010173       0.00005650       0.00211788
Si       5.55865847      58.72697657       3.50063622       0.00027556      -0.00011052       0.00200747
Si       6.70477278      61.77085251       3.50063704       0.00014517      -0.00002069       0.00207319
Si       9.91390389      62.30021607       3.50063680      -0.00001139      -0.00017074       0.00205652
Si      11.06002403      65.34410254       3.50063696       0.00004954      -0.00008330       0.00210513
Si       8.99700249      67.85860363       3.50063805      -0.00000621      -0.00024463       0.00200262
Si      10.14312414      70.90248458       3.50063632      -0.00006915       0.00010964       0.00213732
Si      13.35225900      71.43184692       3.50063588       0.00015472       0.00005848       0.00219701
Si      14.49838091      74.47573141       3.50063662       0.00015501       0.00009487       0.00206003
Si      12.43535800      76.99023220       3.50063731       0.00007033      -0.00013500       0.00204976
Si      13.58148001      80.03411443       3.50063791      -0.00000368       0.00022268       0.00203578
Si      16.79061779      80.56347736       3.50063606       0.00006664      -0.00003125       0.00218859
Si      17.93673917      83.60736049       3.50063653      -0.00001654      -0.00002169       0.00207621
Si      15.87371500      86.12186132       3.50063752       0.00005978      -0.00014663       0.00203142
Si      17.01983689      89.16574330       3.50063718      -0.00001155      -0.00010909       0.00208026
Si      20.22897539      89.69510991       3.50063606       0.00004037      -0.00000227       0.00215632
Si      21.37509679      92.73898877       3.50063689      -0.00005652       0.00004876       0.00215080
Si      19.31207340      95.25349063       3.50063733       0.00001100      -0.00004326       0.00204785
Si      20.45819748      98.29736820       3.50063632      -0.00006091       0.00000076       0.00212741
Si      23.66733229      98.82673522       3.50063657       0.00009692      -0.00017310       0.00215327
Si      24.81345720     101.87061645       3.50063662      -0.00013867       0.00027720       0.00209429
Si      22.75042865     104.38512046       3.50063681       0.00005147      -0.00023591       0.00213260
Si      23.89655140     107.42900294       3.50063679       0.00005383      -0.00023871       0.00209031
Si      27.10569089     107.95836465       3.50063695       0.00007316      -0.00019154       0.00211999
Si      28.25181205     111.00224525       3.50063742       0.00003684       0.00014463       0.00209133
Si      26.18878408     113.51673225       3.50063565      -0.00007850      -0.00051227       0.00206093
Si      27.33490753     116.56052287       3.50062027       0.00009772      -0.00016332       0.00239707
Si      30.54400411     117.08973618       3.50065456       0.00025786       0.00032605       0.00183260
Si       1.43282897      23.78857221       3.50065090      -0.00047938      -0.00015979       0.00197183
Si       2.57883088      26.83243988       3.50062418       0.00010092       0.00004963       0.00231383
Si       0.51592265      29.34693728       3.50064894      -0.00025704       0.00011257       0.00199594
Si       1.66200379      32.39079406       3.50064390      -0.00009303      -0.00001293       0.00200971
Si       4.87105537      32.92019052       3.50063089       0.00011685       0.00004648       0.00216293
Si       6.01712092      35.96406754       3.50063603       0.00026579      -0.00022492       0.00203623
Si       3.95418406      38.47858285       3.50062563       0.00001126      -0.00024936       0.00221040
Si       5.10026263      41.52242374       3.50063022       0.00016180       0.00025064       0.00213633
Si       8.30935712      42.05181834       3.50063701       0.00025900      -0.00006953       0.00203420
Si       9.45547053      45.09569629       3.50063690       0.00010439       0.00004627       0.00209672
Si       7.39246221      47.61020358       3.50063583       0.00028228       0.00006446       0.00204103
Si       8.53856969      50.65408610       3.50063747       0.00008044      -0.00001835       0.00204229
Si      11.74770629      51.18344662       3.50063718      -0.00002015       0.00000683       0.00201905
Si      12.89382684      54.22732557       3.50063668       0.00001311       0.00000155       0.00210448
Si      10.83080479      56.74183235       3.50063700       0.00001520      -0.00002901       0.00211989
Si      11.97692696      59.78571626       3.50063647      -0.00001584      -0.00001935       0.00212924
Si      15.18606413      60.31507742       3.50063694      -0.00005093      -0.00029016       0.00205297
Si      16.33218379      63.35895495       3.50063677       0.00002277       0.00006507       0.00207915
Si      14.26916100      65.87345551       3.50063668      -0.00002801      -0.00020376       0.00208791
Si      15.41528161      68.91734611       3.50063731       0.00010535      -0.00001136       0.00203329
Si      18.62442191      69.44669686       3.50063640      -0.00004714       0.00042705       0.00213572
Si      19.77054243      72.49058792       3.50063712       0.00014287       0.00004123       0.00202195
Si      17.70751785      75.00508499       3.50063710       0.00011127      -0.00003219       0.00210331
Si      18.85364105      78.04897364       3.50063775       0.00003381      -0.00008343       0.00202083
Si      22.06277772      78.57832396       3.50063700      -0.00010308       0.00027790       0.00208228
Si      23.20889909      81.62221714       3.50063688      -0.00006789       0.00000579       0.00217801
Si      21.14587670      84.13670961       3.50063710       0.00000995       0.00002636       0.00204564
Si      22.29199784      87.18060152       3.50063713      -0.00006239       0.00002217       0.00204563
Si      25.50113689      87.70995424       3.50063655      -0.00002676       0.00042723       0.00212766
Si      26.64725734      90.75384372       3.50063589       0.00004616       0.00012085       0.00215557
Si      24.58423341      93.26834254       3.50063707       0.00008223       0.00005428       0.00209678
Si      25.73035581      96.31223677       3.50063691       0.00007869      -0.00016929       0.00206191
Si      28.93949197      96.84158306       3.50063688      -0.00005019       0.00007551       0.00209235
Si      30.08561455      99.88547696       3.50063724       0.00011717      -0.00005753       0.00207782
Si      28.02259041     102.39996869       3.50063577       0.00012046       0.00008719       0.00223604
Si      29.16871211     105.44386078       3.50063804       0.00001878       0.00002787       0.00197438
Si      32.37785003     105.97321510       3.50063676      -0.00005821      -0.00008025       0.00212471
Si      33.52397096     109.01709933       3.50063778       0.00001371       0.00018918       0.00205145
Si      31.46094978     111.53158868       3.50063620      -0.00000019      -0.00015830       0.00210134
Si      32.60710857     114.57541027       3.50062627      -0.00029477      -0.00020684       0.00229089
Si      35.81619412     115.10475621       3.50062609       0.00016293      -0.00040089       0.00222328
Si      36.96239561     118.14849148       3.50064863       0.00017659       0.00058875       0.00195107
Si       0.97441616       6.58403454       3.50064834      -0.00032010       0.00047931       0.00196592
Si       0.05751401      12.14239413       3.50064796      -0.00028700      -0.00005774       0.00200537
Si       3.26653215      12.67179715       3.50062585       0.00002653      -0.00008971       0.00218980
Si       4.41260988      15.71563758       3.50062987       0.00017457       0.00031640       0.00216825
Si       2.34973320      18.23018532       3.50065011      -0.00024223      -0.00008214       0.00198928
Si       3.49573133      21.27405724       3.50062430       0.00006442       0.00003217       0.00233310
Si       6.70481015      21.80341760       3.50063576       0.00024623       0.00009209       0.00205214
Si       7.85091834      24.84730040       3.50063738       0.00002799       0.00004376       0.00206546
Si       5.78790856      27.36180479       3.50063599       0.00027171      -0.00007532       0.00205162
Si       6.93402153      30.40567999       3.50063642       0.00017079      -0.00001473       0.00206991
Si      10.14315314      30.93504612       3.50063678       0.00004246       0.00011488       0.00210565
Si      11.28927415      33.97893047       3.50063617      -0.00001561      -0.00008782       0.00214783
Si       9.22625026      36.49343039       3.50063760       0.00005405      -0.00004069       0.00212694
Si      10.37237246      39.53731518       3.50063816       0.00007733       0.00003679       0.00203190
Si      13.58150954      40.06667634       3.50063737       0.00001433      -0.00002515       0.00206321
Si      14.72763030      43.11055764       3.50063712       0.00002088       0.00008150       0.00205442
Si      12.66460771      45.62506091       3.50063732      -0.00000306      -0.00003550       0.00208880
Si      13.81072927      48.66894350       3.50063714       0.00008362      -0.00003394       0.00208297
Si      17.01986614      49.19830649       3.50063665      -0.00006132      -0.00010694       0.00208347
Si      18.16599029      52.24218662       3.50063701      -0.00004790       0.00000380       0.00203988
Si      16.10296531      54.75668605       3.50063664      -0.00000566       0.00011970       0.00215595
Si      17.24908781      57.80057496       3.50063635      -0.00017086       0.00002357       0.00220231
Si      20.45822174      58.32993507       3.50063608       0.00013165       0.00008738       0.00215198
Si      21.60434419      61.37381720       3.50063664       0.00004488       0.00019569       0.00206481
Si      19.54132339      63.88831756       3.50063764       0.00008194      -0.00003830       0.00205387
Si      20.68744386      66.93219654       3.50063658      -0.00000549      -0.00011489       0.00205907
Si      23.89658222      67.46156693       3.50063721       0.00003207      -0.00034991       0.00205275
Si      25.04270376      70.50544105       3.50063737       0.00005208       0.00044853       0.00207612
Si      22.97968149      73.01994888       3.50063757      -0.00012953      -0.00001046       0.00200062
Si      24.12580105      76.06382645       3.50063643       0.00013766      -0.00011075       0.00208951
Si      27.33493949      76.59319345       3.50063722      -0.00010547      -0.00007535       0.00205539
Si      28.48106081      79.63707806       3.50063782       0.00000358      -0.00040066       0.00203122
Si      26.41803964      82.15157741       3.50063792      -0.00007594      -0.00003636       0.00200568
Si      27.56415894      85.19545542       3.50063704       0.00001859      -0.00006606       0.00205921
Si      30.77329660      85.72482142       3.50063681       0.00007328       0.00002574       0.00205377
Si      31.91941911      88.76869934       3.50063748       0.00007563       0.00003790       0.00215336
Si      29.85639638      91.28320809       3.50063688      -0.00007085      -0.00016874       0.00214976
Si      31.00251738      94.32708504       3.50063720      -0.00003255      -0.00012810       0.00203789
Si      34.21165260      94.85645362       3.50063698       0.00019902      -0.00008613       0.00209273
Si      35.35777526      97.90033071       3.50063697      -0.00004018      -0.00000012       0.00207323
Si      33.29475309     100.41483692       3.50063717      -0.00012132      -0.00025589       0.00208008
Si      34.44087392     103.45870888       3.50063607       0.00011025       0.00009758       0.00218293
Si      37.65001437     103.98807996       3.50063674       0.00008846       0.00001451       0.00210026
Si      38.79613880     107.03195712       3.50063621      -0.00011789      -0.00009319       0.00212777
Si      36.73311377     109.54646409       3.50063797       0.00002284      -0.00001506       0.00207882
Si      37.87923704     112.59032830       3.50063779       0.00012397      -0.00030625       0.00195193
Si      41.08837077     113.11969392       3.50063698      -0.00006151      -0.00019614       0.00203748
Si      42.23453540     116.16351166       3.50062498      -0.00026550      -0.00027847       0.00224785
Si      40.17147040     118.67783811       3.50065054      -0.00015585       0.00008526       0.00191400
Si       1.89125440       1.02586901       3.50065600      -0.00009454      -0.00015107       0.00194980
Si       5.10024276       1.55525616       3.50064268       0.00008481      -0.00026155       0.00204001
Si       6.24638637       4.59898877       3.50062559       0.00002324       0.00008949       0.00211759
Si       4.18343060       7.11342737       3.50062634      -0.00010465       0.00017239       0.00216570
Si       5.32947151      10.15728947       3.50063550       0.00028062       0.00004684       0.00203009
Si       8.53859766      10.68664790       3.50063788       0.00006233       0.00002307       0.00205364
Si       9.68472062      13.73052939       3.50063710       0.00000787      -0.00000617       0.00208536
Si       7.62170483      16.24503139       3.50063653       0.00018074       0.00001845       0.00205589
Si       8.76781815      19.28891374       3.50063727       0.00006037      -0.00004546       0.00206125
Si      11.97695564      19.81827657       3.50063686      -0.00002530      -0.00012477       0.00211138
Si      13.12307803      22.86215586       3.50063713      -0.00008045       0.00016223       0.00206736
Si      11.06005405      25.37666059       3.50063724       0.00000674      -0.00001816       0.00204985
Si      12.20617484      28.42054265       3.50063693      -0.00000318       0.00003241       0.00207381
Si      15.41531334      28.94990566       3.50063765      -0.00003950      -0.00005490       0.00203360
Si      16.56143369      31.99378771       3.50063685      -0.00003267      -0.00002170       0.00208578
Si      14.49841175      34.50828576       3.50063638      -0.00006918       0.00003954       0.00211796
Si      15.64453246      37.55217277       3.50063635      -0.00000259       0.00002955       0.00212765
Si      18.85367039      38.08153237       3.50063659       0.00000976       0.00011114       0.00211503
Si      19.99979093      41.12541742       3.50063712       0.00001569       0.00005761       0.00207211
Si      17.93676861      43.63991591       3.50063661      -0.00000752       0.00000211       0.00212435
Si      19.08289079      46.68380188       3.50063592      -0.00009758      -0.00011385       0.00215115
Si      22.29202737      47.21316444       3.50063687       0.00001783      -0.00011470       0.00211952
Si      23.43814974      50.25704844       3.50063732       0.00001311      -0.00008415       0.00203351
Si      21.37512478      52.77154353       3.50063730       0.00005015       0.00000848       0.00203177
Si      22.52124634      55.81542792       3.50063702       0.00003658       0.00002780       0.00206681
Si      25.73038663      56.34479255       3.50063684      -0.00006438       0.00004186       0.00208766
Si      26.87650608      59.38867445       3.50063632      -0.00006521       0.00010454       0.00217653
Si      24.81348451      61.90317787       3.50063644      -0.00008644      -0.00001154       0.00215420
Si      25.95960705      64.94706306       3.50063624      -0.00012669       0.00009744       0.00214912
Si      29.16874420      65.47641795       3.50063667      -0.00007007      -0.00015392       0.00211028
Si      30.31486468      68.52030384       3.50063680       0.00000806       0.00031190       0.00215855
Si      28.25184128      71.03480638       3.50063742      -0.00005504       0.00009595       0.00196620
Si      29.39796448      74.07869254       3.50063674      -0.00006379       0.00005437       0.00213056
Si      32.60710033      74.60804943       3.50063754      -0.00011466      -0.00018083       0.00208153
Si      33.75322364      77.65193335       3.50063693       0.00004897       0.00007300       0.00207454
Si      31.69020027      80.16643650       3.50063703       0.00000242      -0.00000401       0.00202816
Si      32.83631824      83.21032060       3.50063804       0.00004294       0.00011368       0.00203389
Si      36.04546085      83.73967907       3.50063619      -0.00012147      -0.00016254       0.00210703
Si      37.19158233      86.78356100       3.50063691      -0.00006366       0.00014527       0.00209388
Si      35.12855532      89.29806600       3.50063718       0.00016083       0.00003309       0.00203691
Si      36.27467969      92.34195148       3.50063738      -0.00011478      -0.00006306       0.00206186
Si      39.48381838      92.87130664       3.50063679      -0.00002093      -0.00022701       0.00209950
Si      40.62994093      95.91519173       3.50063645      -0.00013645       0.00006489       0.00205989
Si      38.56691396      98.42969841       3.50063672       0.00001011       0.00003675       0.00209228
Si      39.71303542     101.47357857       3.50063649       0.00000386       0.00007492       0.00213691
Si      42.92217483     102.00294025       3.50063708      -0.00018251      -0.00011525       0.00200062
Si      44.06829445     105.04681914       3.50063731      -0.00006860      -0.00012643       0.00208920
Si      42.00527074     107.56132104       3.50063737      -0.00015611       0.00025421       0.00204899
Si      43.15139565     110.60520768       3.50063678       0.00010289      -0.00012607       0.00210004
Si      46.36053161     111.13456792       3.50063853      -0.00006656      -0.00030004       0.00198276
Si      47.50665492     114.17843924       3.50063376       0.00002598      -0.00052902       0.00211538
Si      45.44360186     116.69283612       3.50062231       0.00004358      -0.00010377       0.00232359
Si      46.58981945     119.73652097       3.50064775      -0.00004471       0.00071191       0.00209773
Si      11.51856687       2.61401121       3.50065428      -0.00025276      -0.00037835       0.00186938
Si       9.45546301       5.12833857       3.50062725       0.00033420       0.00009718       0.00220650
Si      10.60162313       8.17215702       3.50063655       0.00002838       0.00029728       0.00204488
Si      13.81075819       8.70150711       3.50063799      -0.00000721       0.00005678       0.00203397
Si      14.95688018      11.74538961       3.50063753       0.00000438      -0.00003423       0.00204625
Si      12.89385708      14.25989091       3.50063707      -0.00003296      -0.00002270       0.00208570
Si      14.03997832      17.30377252       3.50063676      -0.00000503       0.00007341       0.00210776
Si      17.24911525      17.83313514       3.50063641      -0.00001245      -0.00011851       0.00212150
Si      18.39523841      20.87701692       3.50063690      -0.00004633       0.00004096       0.00210109
Si      16.33221330      23.39151797       3.50063679       0.00014791       0.00003539       0.00209699
Si      17.47833670      26.43540206       3.50063701       0.00004900       0.00004131       0.00205227
Si      20.68747218      26.96476343       3.50063743       0.00003412      -0.00003202       0.00203960
Si      21.83359459      30.00864595       3.50063778       0.00005714      -0.00008876       0.00200669
Si      19.77057057      32.52314808       3.50063737       0.00002229      -0.00000095       0.00205339
Si      20.91669225      35.56702968       3.50063728      -0.00001108       0.00002617       0.00206171
Si      24.12583209      36.09639166       3.50063704       0.00002923       0.00009425       0.00211212
Si      25.27195189      39.14027705       3.50063732       0.00009667      -0.00005600       0.00206997
Si      23.20893030      41.65477875       3.50063711      -0.00007539      -0.00000787       0.00208228
Si      24.35505183      44.69865808       3.50063702       0.00005571      -0.00001430       0.00207955
Si      27.56418719      45.22801870       3.50063683       0.00000563       0.00003593       0.00208115
Si      28.71031116      48.27190609       3.50063682      -0.00001172      -0.00010940       0.00208548
Si      26.64728615      50.78640686       3.50063756       0.00002921       0.00000430       0.00204234
Si      27.79340808      53.83028744       3.50063742       0.00000699      -0.00000189       0.00204018
Si      31.00254803      54.35964730       3.50063793      -0.00007027       0.00017253       0.00201292
Si      32.14866832      57.40353578       3.50063653      -0.00017780       0.00000351       0.00210522
Si      30.08564522      59.91803545       3.50063558      -0.00000193       0.00009934       0.00218702
Si      31.23176791      62.96191899       3.50063724       0.00000274       0.00005476       0.00207754
Si      34.44090637      63.49127951       3.50063690       0.00005397      -0.00001717       0.00208959
Si      35.58702359      66.53515681       3.50063730      -0.00000113       0.00002557       0.00203322
Si      33.52400315      69.04966436       3.50063640       0.00000478      -0.00041578       0.00211320
Si      34.67012650      72.09354949       3.50063690      -0.00018516      -0.00009205       0.00211826
Si      37.87926250      72.62291072       3.50063708       0.00022813      -0.00003049       0.00205985
Si      39.02538384      75.66678751       3.50063721       0.00010069      -0.00000841       0.00201329