4104
Lattice="73.66711081384966 0.0 0.0 0.0 127.59517877639428 0.0 0.0 0.0 100.0" Properties=species:S:1:pos:R:3:forces:R:3 energy=-1403093.7390594482 free_energy=-1403093.7390594482 pbc="T T T"
Si       1.29251530     119.94771092       3.50065240      -0.00036043      -0.00021220       0.00177196
Si       2.58484629     122.93232640       3.50061185      -0.00010354      -0.00014041       0.00243744
Si       0.64629889     125.54376906       3.50066400      -0.00036292       0.00007023       0.00184728
Si       0.00013706     102.78565482       3.50064955      -0.00044327      -0.00006448       0.00201483
Si       2.58494939     108.75508011       3.50065305      -0.00038300      -0.00005320       0.00194213
Si       3.87723105     111.73978571       3.50062394       0.00016251       0.00003626       0.00230871
Si       1.93873281     114.35140647       3.50065061      -0.00043870      -0.00018877       0.00206433
Si       3.23101940     117.33610305       3.50062452       0.00005928       0.00007604       0.00226726
Si       6.46199255     117.70918631       3.50063516       0.00030487       0.00003164       0.00207118
Si       7.75440028     120.69387019       3.50063716       0.00018224      -0.00009115       0.00196654
Si       5.81575976     123.30539655       3.50062530       0.00056828      -0.00002225       0.00211331
Si       7.10825137     126.28994359       3.50065126       0.00004178       0.00019816       0.00189884
Si      10.33921822     126.66300939       3.50064862      -0.00014347       0.00041625       0.00211122
Si       0.00012920      88.60832851       3.50064983      -0.00043457      -0.00002596       0.00201078
Si       1.29249718      91.59300583       3.50064241      -0.00015564       0.00028593       0.00205762
Si       0.64634559      97.18934074       3.50065047      -0.00041645       0.00001293       0.00201335
Si       3.87726590      97.56245942       3.50062566      -0.00003488      -0.00025360       0.00223353
Si       5.16958995     100.54715572       3.50063574       0.00035896       0.00001064       0.00195110
Si       3.23105193     103.15876337       3.50062496      -0.00001589       0.00006411       0.00212905
Si       4.52341920     106.14342667       3.50062900       0.00015751       0.00048210       0.00219181
Si       7.75441328     106.51654391       3.50063698       0.00013385       0.00006838       0.00205712
Si       9.04682027     109.50125579       3.50063694      -0.00000590       0.00001129       0.00208854
Si       7.10820578     112.11286836       3.50063521       0.00024837      -0.00004163       0.00202438
Si       8.40060732     115.09757611       3.50063657       0.00006081      -0.00002400       0.00215787
Si      11.63164272     115.47064986       3.50063623       0.00007141      -0.00011949       0.00208213
Si      12.92405862     118.45535488       3.50063680       0.00003750       0.00000132       0.00210571
Si      10.98542831     121.06694795       3.50063641      -0.00007126      -0.00017304       0.00205512
Si      12.27788562     124.05158121       3.50062424      -0.00031350      -0.00024912       0.00223389
Si      15.50884783     124.42463601       3.50062087       0.00014338      -0.00027989       0.00228074
Si      16.80137998     127.40912390       3.50064820      -0.00006890       0.00074999       0.00208397
Si       1.29255688      77.41571733       3.50065124      -0.00030685       0.00001512       0.00194962
Si       2.58484274      80.40041762       3.50062323       0.00007878      -0.00011040       0.00240085
Si       0.64634496      83.01203543       3.50065068      -0.00054316      -0.00021846       0.00203519
Si       1.93863235      85.99672455       3.50062264       0.00014468      -0.00005167       0.00228780
Si       5.16960519      86.36980824       3.50063548       0.00031579      -0.00014740       0.00204009
Si       6.46201192      89.35450939       3.50063609       0.00017456       0.00000792       0.00205356
Si       4.52344420      91.96612952       3.50063105       0.00014889      -0.00016129       0.00210717
Si       5.81580114      94.95083588       3.50063516       0.00022411      -0.00001346       0.00200941
Si       9.04682935      95.32391753       3.50063778      -0.00000955      -0.00019510       0.00201085
Si      10.33924442      98.30861605       3.50063636       0.00004596       0.00011483       0.00212006
Si       8.40061660     100.92022857       3.50063692       0.00011863       0.00006166       0.00209142
Si       9.69303400     103.90493498       3.50063650      -0.00000947      -0.00012690       0.00210093
Si      12.92406892     104.27801416       3.50063662      -0.00002102      -0.00018359       0.00210710
Si      14.21648423     107.26272918       3.50063691       0.00001541       0.00008067       0.00213059
Si      12.27785569     109.87433679       3.50063671      -0.00001595       0.00008767       0.00206425
Si      13.57027278     112.85904340       3.50063677      -0.00003894      -0.00006344       0.00209674
Si      16.80130894     113.23211628       3.50063658      -0.00010653      -0.00002866       0.00213112
Si      18.09372534     116.21682201       3.50063620      -0.00000573       0.00015668       0.00216359
Si      16.15509434     118.82843365       3.50063781       0.00000096      -0.00014811       0.00203352
Si      17.44751138     121.81313306       3.50063508       0.00008966      -0.00042490       0.00201737
Si      20.67852259     122.18613028       3.50062566       0.00014106      -0.00005604       0.00228596
Si      21.97100941     125.17069195       3.50065420      -0.00000708       0.00028180       0.00195663
Si       0.00017514      60.25364000       3.50064967      -0.00034373      -0.00003981       0.00197589
Si       2.58499080      66.22308092       3.50065165      -0.00064647      -0.00020947       0.00204889
Si       3.87726893      69.20777610       3.50062253       0.00010411      -0.00002180       0.00238709
Si       1.93876962      71.81939475       3.50065245      -0.00033054      -0.00014436       0.00191617
Si       3.23105623      74.80409869       3.50062437       0.00011598       0.00018446       0.00225272
Si       6.46203015      75.17718073       3.50063531       0.00033645       0.00013271       0.00204178
Si       7.75443172      78.16188822       3.50063670       0.00008710      -0.00010806       0.00213892
Si       5.81581739      80.77349892       3.50063488       0.00033757      -0.00005117       0.00212783
Si       7.10821888      83.75819474       3.50063740       0.00005588       0.00022352       0.00202856
Si      10.33925555      84.13127294       3.50063713      -0.00008057       0.00022151       0.00206941
Si      11.63167141      87.11599045       3.50063579       0.00001492       0.00006616       0.00210956
Si       9.69304277      89.72759835       3.50063651       0.00006641      -0.00008166       0.00211462
Si      10.98545667      92.71230713       3.50063731       0.00004931      -0.00006300       0.00209158
Si      14.21649379      93.08538544       3.50063627       0.00000318      -0.00011024       0.00213521
Si      15.50890906      96.07008617       3.50063671       0.00000953       0.00021886       0.00205710
Si      13.57028070      98.68169805       3.50063669       0.00002803      -0.00020618       0.00210382
Si      14.86269767     101.66640616       3.50063727      -0.00001486      -0.00001556       0.00201913
Si      18.09373331     102.03948543       3.50063541       0.00005443       0.00023824       0.00222308
Si      19.38615062     105.02419726       3.50063796      -0.00011556      -0.00007500       0.00202603
Si      17.44751938     107.63580894       3.50063614       0.00010750      -0.00021340       0.00207377
Si      18.73993598     110.62050838       3.50063645       0.00000117       0.00006356       0.00212495
Si      21.97097599     110.99358484       3.50063687      -0.00001892       0.00002869       0.00211568
Si      23.26339113     113.97829465       3.50063586      -0.00002663      -0.00013217       0.00211260
Si      21.32476298     116.58990018       3.50063760      -0.00014921       0.00000458       0.00206324
Si      22.61718171     119.57460240       3.50063626       0.00013845      -0.00006233       0.00201314
Si      25.84821326     119.94767783       3.50063602      -0.00004816      -0.00013440       0.00200226
Si      27.14067262     122.93230527       3.50062462      -0.00017093      -0.00012876       0.00221826
Si      25.20199847     125.54373902       3.50065053      -0.00011978       0.00007335       0.00197556
Si       0.00016402      46.07632140       3.50065009      -0.00006954       0.00020033       0.00190738
Si       1.29253515      49.06100056       3.50064245      -0.00019798       0.00010517       0.00211704
Si       0.64638264      54.65733075       3.50065051      -0.00044643       0.00008980       0.00194731
Si       3.87730268      55.03044617       3.50062526      -0.00001375      -0.00004117       0.00220789
Si       5.16962787      58.01514856       3.50063603       0.00028109       0.00001014       0.00198724
Si       3.23108985      60.62676288       3.50062401      -0.00005967      -0.00011394       0.00223890
Si       4.52345634      63.61142356       3.50062884       0.00015039       0.00031348       0.00217673
Si       7.75444986      63.98453966       3.50063708       0.00019444       0.00005234       0.00200676
Si       9.04685933      66.96924317       3.50063610      -0.00006761       0.00002621       0.00212588
Si       7.10824399      69.58086440       3.50063450       0.00023307      -0.00005526       0.00211701
Si       8.40064580      72.56557018       3.50063764      -0.00005612       0.00007981       0.00206665
Si      11.63167993      72.93864603       3.50063596       0.00003759       0.00023360       0.00214275
Si      12.92409525      75.92335257       3.50063632       0.00002289       0.00009573       0.00206983
Si      10.98546670      78.53496431       3.50063636      -0.00001558      -0.00044709       0.00212450
Si      12.27788230      81.51966778       3.50063675       0.00006522      -0.00012819       0.00210773
Si      15.50892053      81.89274537       3.50063662      -0.00002439      -0.00014481       0.00209842
Si      16.80133737      84.87746001       3.50063649      -0.00016611       0.00010617       0.00215902
Si      14.86270621      87.48906601       3.50063657       0.00002068       0.00007330       0.00209401
Si      16.15512274      90.47377646       3.50063663       0.00009878      -0.00006958       0.00211606
Si      19.38616114      90.84684930       3.50063686      -0.00008705      -0.00003788       0.00205195
Si      20.67857643      93.83155610       3.50063679       0.00006344      -0.00020830       0.00205584
Si      18.73994655      96.44316341       3.50063747      -0.00001413       0.00010451       0.00206249
Si      20.03236396      99.42788254       3.50063726      -0.00006155      -0.00010005       0.00202581
Si      23.26340009      99.80095824       3.50063702      -0.00001985      -0.00000519       0.00204470
Si      24.55581773     102.78566703       3.50063736      -0.00011204      -0.00007661       0.00202935
Si      22.61718852     105.39727309       3.50063598      -0.00011441       0.00008219       0.00211652
Si      23.90960436     108.38197656       3.50063707      -0.00006512       0.00006557       0.00208460
Si      27.14064172     108.75505183       3.50063706       0.00001791       0.00005317       0.00205812
Si      28.43305807     111.73976313       3.50063655       0.00003711      -0.00007090       0.00211965
Si      26.49442810     114.35138015       3.50063646       0.00002340      -0.00012351       0.00211498
Si      27.78684393     117.33607997       3.50063739       0.00001229       0.00005406       0.00201540
Si      31.01788411     117.70916284       3.50063665      -0.00010995      -0.00012700       0.00210022
Si      32.31030361     120.69384815       3.50063640       0.00014084      -0.00018478       0.00209011
Si      30.37164982     123.30537528       3.50062547       0.00007287      -0.00008115       0.00222999
Si      31.66415311     126.28991836       3.50064931       0.00002001       0.00035604       0.00210532
Si      34.89512267     126.66299174       3.50064962      -0.00012028       0.00009260       0.00199127
Si       1.29259638      34.88371033       3.50065112      -0.00039822       0.00000366       0.00194860
Si       2.58487965      37.86840787       3.50062405       0.00012419      -0.00006314       0.00230085
Si       0.64637963      40.48002932       3.50065162      -0.00026596      -0.00015484       0.00195935
Si       1.93866885      43.46472466       3.50062252       0.00015857       0.00003359       0.00233690
Si       5.16964177      43.83780485       3.50063503       0.00028652      -0.00006129       0.00206694
Si       6.46204965      46.82251045       3.50063675       0.00014148      -0.00009105       0.00205423
Si       4.52348143      49.43412403       3.50062973       0.00009115      -0.00008859       0.00215960
Si       5.81583723      52.41882539       3.50063500       0.00027563      -0.00008809       0.00205380
Si       9.04686698      52.79190707       3.50063715       0.00003145      -0.00006158       0.00208228
Si      10.33928272      55.77661936       3.50063639      -0.00002227      -0.00001332       0.00212417
Si       8.40065428      58.38822380       3.50063740       0.00009093      -0.00007430       0.00205080
Si       9.69307004      61.37293067       3.50063698       0.00001404      -0.00003417       0.00204987
Si      12.92410574      61.74601227       3.50063641       0.00001059      -0.00004833       0.00209569
Si      14.21652087      64.73071864       3.50063764       0.00003100      -0.00001413       0.00203261
Si      12.27789304      67.34233231       3.50063617       0.00004785      -0.00001414       0.00213095
Si      13.57030815      70.32703810       3.50063704       0.00010253      -0.00007081       0.00210477
Si      16.80134651      70.70011985       3.50063615      -0.00000513      -0.00017724       0.00214278
Si      18.09376249      73.68481902       3.50063565      -0.00005028      -0.00015170       0.00218345
Si      16.15513352      76.29643001       3.50063754      -0.00012160      -0.00018810       0.00207269
Si      17.44754966      79.28113430       3.50063648       0.00002150      -0.00000297       0.00208214
Si      20.67858541      79.65421948       3.50063688       0.00002791      -0.00003136       0.00202978
Si      21.97100159      82.63893054       3.50063718       0.00008212      -0.00017650       0.00208906
Si      20.03237293      85.25053612       3.50063612       0.00000546       0.00010075       0.00207231
Si      21.32478979      88.23524247       3.50063602      -0.00000525       0.00007120       0.00214199
Si      24.55582765      88.60831705       3.50063644      -0.00004859       0.00006802       0.00210923
Si      25.84824387      91.59302198       3.50063630      -0.00000461       0.00006322       0.00211976
Si      23.90961349      94.20463323       3.50063693       0.00003270      -0.00006185       0.00208648
Si      25.20203006      97.18935186       3.50063738       0.00003322      -0.00031243       0.00204468
Si      28.43306642      97.56242775       3.50063659      -0.00012832      -0.00019480       0.00210046
Si      29.72548190     100.54713437       3.50063672       0.00004287      -0.00000612       0.00211500
Si      27.78685241     103.15874029       3.50063639       0.00007220      -0.00005546       0.00202966
Si      29.07927009     106.14344350       3.50063683       0.00013873       0.00022612       0.00207749
Si      32.31030539     106.51652462       3.50063600      -0.00007773      -0.00018072       0.00214311
Si      33.60272054     109.50123528       3.50063725      -0.00008287       0.00008622       0.00209766
Si      31.66409190     112.11284996       3.50063562       0.00008371       0.00000510       0.00215598
Si      32.95650681     115.09755470       3.50063603       0.00005609      -0.00017499       0.00214208
Si      36.18754534     115.47062667       3.50063640      -0.00000246      -0.00024387       0.00209604
Si      37.47996648     118.45533075       3.50063758      -0.00023106       0.00002441       0.00208671
Si      35.54132949     121.06692687       3.50063759       0.00009930      -0.00003643       0.00198912
Si      36.83379149     124.05156033       3.50062491      -0.00027036      -0.00019732       0.00218223
Si      40.06475195     124.42461297       3.50062049       0.00021636      -0.00026957       0.00222541
Si      41.35728623     127.40910691       3.50064833      -0.00025848       0.00049325       0.00208245
Si       0.00021316      17.72163650       3.50064943      -0.00037467      -0.00004849       0.00197711
Si       2.58502324      23.69107190       3.50065296      -0.00029367      -0.00013847       0.00186748
Si       3.87730681      26.67577638       3.50062299       0.00010708       0.00000607       0.00235245
Si       1.93880613      29.28739209       3.50065224      -0.00027514      -0.00010885       0.00191600
Si       3.23109321      32.27209212       3.50062330       0.00010989       0.00011856       0.00233211
Si       6.46206782      32.64516975       3.50063542       0.00031553       0.00002831       0.00204895
Si       7.75447018      35.62987965       3.50063770       0.00002398       0.00000166       0.00205547
Si       5.81585525      38.24149163       3.50063620       0.00029938      -0.00010364       0.00203819
Si       7.10825650      41.22619362       3.50063630       0.00008707       0.00016402       0.00211930
Si      10.33929211      41.59927308       3.50063684       0.00002068      -0.00010626       0.00210677
Si      11.63170794      44.58398311       3.50063678       0.00004802      -0.00005219       0.00203692
Si       9.69308109      47.19559278       3.50063607      -0.00001040       0.00000930       0.00210290
Si      10.98549561      50.18029721       3.50063663      -0.00004261       0.00000881       0.00212377
Si      14.21653136      50.55337724       3.50063653      -0.00000578      -0.00002056       0.00210117
Si      15.50894581      53.53808352       3.50063606       0.00010808       0.00007317       0.00213883
Si      13.57031860      56.14969163       3.50063665      -0.00000159      -0.00005239       0.00211569
Si      14.86273500      59.13440351       3.50063663       0.00000519       0.00000542       0.00210930
Si      18.09376998      59.50748217       3.50063677       0.00010623       0.00001599       0.00208185
Si      19.38618820      62.49218743       3.50063676       0.00001446      -0.00005380       0.00205836
Si      17.44755817      65.10379783       3.50063720       0.00004080      -0.00000278       0.00201727
Si      18.73997493      68.08850394       3.50063693       0.00003830       0.00026362       0.00205797
Si      21.97101242      68.46158357       3.50063704      -0.00010965       0.00006342       0.00208211
Si      23.26342779      71.44628791       3.50063568       0.00005267      -0.00006415       0.00213656
Si      21.32480007      74.05789581       3.50063719      -0.00007903      -0.00020263       0.00208840
Si      22.61721569      77.04260351       3.50063571      -0.00003902       0.00008579       0.00222091
Si      25.84825128      77.41568379       3.50063595      -0.00004499       0.00014100       0.00210101
Si      27.14066733      80.40039707       3.50063680       0.00001421      -0.00004212       0.00206197
Si      25.20204006      83.01200626       3.50063657      -0.00008898      -0.00009967       0.00214392
Si      26.49445467      85.99670634       3.50063643       0.00010306       0.00019975       0.00210084
Si      29.72549313      86.36978536       3.50063734       0.00001991      -0.00009793       0.00207634
Si      31.01791239      89.35449413       3.50063603      -0.00009238       0.00018016       0.00206360
Si      29.07928031      91.96611125       3.50063748      -0.00009858      -0.00008864       0.00200425
Si      30.37169628      94.95081922       3.50063730      -0.00007270      -0.00019143       0.00211176
Si      33.60273018      95.32389708       3.50063677       0.00012864      -0.00022365       0.00205770
Si      34.89514546      98.30859645       3.50063683       0.00029232       0.00010960       0.00205706
Si      32.95651808     100.92020713       3.50063661       0.00019415       0.00017551       0.00212090
Si      34.24893355     103.90491316       3.50063697       0.00022323       0.00003121       0.00204282
Si      37.47997498     104.27799389       3.50063698      -0.00008169      -0.00007227       0.00202004
Si      38.77238800     107.26270871       3.50063661      -0.00005949      -0.00025912       0.00214477
Si      36.83376294     109.87431413       3.50063633      -0.00006995       0.00009384       0.00212866
Si      38.12617325     112.85902327       3.50063644       0.00012979      -0.00002788       0.00213181
Si      41.35721565     113.23209298       3.50063689      -0.00014956       0.00005461       0.00208991
Si      42.64963264     116.21680354       3.50063563      -0.00006854      -0.00015278       0.00212129
Si      40.71099915     118.82840919       3.50063779       0.00013949       0.00000493       0.00207518
Si      42.00341887     121.81310934       3.50063366      -0.00003945      -0.00015751       0.00210938
Si      45.23442993     122.18610681       3.50062628       0.00005821       0.00007044       0.00224160
Si      46.52691729     125.17067081       3.50065422      -0.00000946       0.00022407       0.00184944
Si       0.00016325       3.54441237       3.50063833      -0.00005352       0.00035600       0.00206345
Si       1.29257401       6.52901320       3.50064298      -0.00011096       0.00036677       0.00199347
Si       0.64641996      12.12532717       3.50065048      -0.00035211       0.00000033       0.00196493
Si       3.87734073      12.49844281       3.50062508      -0.00001862      -0.00007991       0.00224269
Si       5.16966587      15.48314232       3.50063522       0.00031883       0.00001933       0.00201031
Si       3.23112756      18.09475545       3.50062485       0.00001574      -0.00010618       0.00220109
Si       4.52349366      21.07942116       3.50062903       0.00016464       0.00028510       0.00218778
Si       7.75448718      21.45253653       3.50063657       0.00019986       0.00004564       0.00206202
Si       9.04689490      24.43724260       3.50063645       0.00001845       0.00005324       0.00210304
Si       7.10828135      27.04885698       3.50063545       0.00030167      -0.00003875       0.00206519
Si       8.40068213      30.03356057       3.50063641       0.00007486       0.00005559       0.00210534
Si      11.63171734      30.40663843       3.50063613      -0.00001260      -0.00001919       0.00212119
Si      12.92413261      33.39134742       3.50063678       0.00007470       0.00009353       0.00210441
Si      10.98550532      36.00295797       3.50063641       0.00002397       0.00004768       0.00211187
Si      12.27791985      38.98766341       3.50063698       0.00006810       0.00000764       0.00203786
Si      15.50895693      39.36074449       3.50063671      -0.00000811      -0.00004083       0.00208296
Si      16.80137398      42.34545226       3.50063621      -0.00010686      -0.00012986       0.00210937
Si      14.86274477      44.95705732       3.50063688      -0.00002327      -0.00004634       0.00209221
Si      16.15516103      47.94176851       3.50063648      -0.00004462       0.00000864       0.00214010
Si      19.38619709      48.31484792       3.50063641       0.00000562       0.00002507       0.00213136
Si      20.67861175      51.29955081       3.50063632       0.00001746       0.00011431       0.00212812
Si      18.73998334      53.91116296       3.50063673       0.00003936      -0.00013123       0.00210532
Si      20.03240078      56.89587287       3.50063647       0.00007426      -0.00002783       0.00209683
Si      23.26343724      57.26894903       3.50063716      -0.00005421      -0.00005559       0.00203573
Si      24.55585281      60.25365504       3.50063604       0.00001513       0.00000697       0.00212918
Si      22.61722402      62.86526669       3.50063645      -0.00002632       0.00005060       0.00209040
Si      23.90964076      65.84997508       3.50063654      -0.00003949       0.00002517       0.00212184
Si      27.14067738      66.22305261       3.50063694      -0.00001464       0.00005996       0.00205655
Si      28.43309272      69.20775532       3.50063674       0.00002338      -0.00006480       0.00206530
Si      26.49446466      71.81936755       3.50063633      -0.00007613      -0.00015396       0.00212992
Si      27.78688016      74.80408098       3.50063620      -0.00001020      -0.00016997       0.00217782
Si      31.01791606      75.17715594       3.50063639       0.00008492       0.00011038       0.00211279
Si      32.31033196      78.16186460       3.50063585       0.00011653      -0.00006002       0.00213462
Si      30.37170630      80.77347376       3.50063688      -0.00006255      -0.00007384       0.00209159
Si      31.66412054      83.75817321       3.50063650       0.00013043       0.00025786       0.00207837
Si      34.89516059      84.13125504       3.50063643      -0.00009842      -0.00012286       0.00215110
Si      36.18757148      87.11596730       3.50063755       0.00028559       0.00015377       0.00209879
Si      34.24894572      89.72757902       3.50063665      -0.00023135       0.00007147       0.00212295
Si      35.54136252      92.71228523       3.50063679      -0.00013136      -0.00002555       0.00204590
Si      38.77239868      93.08536733       3.50063767      -0.00012576      -0.00009198       0.00199218
Si      40.06481477      96.07006650       3.50063628       0.00002410      -0.00010679       0.00214949
Si      38.12618916      98.68167470       3.50063728      -0.00008488       0.00011032       0.00203626
Si      39.41860470     101.66637967       3.50063597      -0.00027761       0.00006436       0.00215745
Si      42.64963766     102.03946530       3.50063563       0.00007441       0.00012634       0.00214715
Si      43.94205429     105.02417448       3.50063716      -0.00009931      -0.00006749       0.00205629
Si      42.00342623     107.63578602       3.50063727       0.00008919      -0.00024496       0.00198899
Si      43.29584179     110.62048644       3.50063639      -0.00009057       0.00005739       0.00211607
Si      46.52687952     110.99356246       3.50063788      -0.00004819      -0.00001721       0.00201710
Si      47.81929455     113.97827295       3.50063630       0.00021621      -0.00002859       0.00214078
Si      45.88066530     116.58987552       3.50063642      -0.00008879       0.00015849       0.00214003
Si      47.17308768     119.57458186       3.50063573      -0.00003652      -0.00025432       0.00208392
Si      50.40411859     119.94765939       3.50063624       0.00000454      -0.00036780       0.00203550
Si      51.69657541     122.93228003       3.50062502      -0.00008791       0.00003062       0.00217344
Si      49.75790447     125.54371573       3.50065047      -0.00022817       0.00024441       0.00201127
Si       1.93870731       0.93299055       3.50063619       0.00007458      -0.00036418       0.00225965
Si       5.16961080       1.30606642       3.50064950       0.00036349      -0.00037600       0.00199522
Si       6.46210650       4.29060106       3.50062524      -0.00006153       0.00009926       0.00211681
Si       4.52351312       6.90212942       3.50062993      -0.00003404       0.00017388       0.00209491
Si       5.81587529       9.88682383       3.50063579       0.00027603       0.00001109       0.00199733
Si       9.04690357      10.25990606       3.50063738       0.00002975       0.00001642       0.00204865
Si      10.33931948      13.24461160       3.50063663       0.00001505       0.00002612       0.00210916
Si       8.40069098      15.85621968       3.50063755       0.00004799      -0.00001362       0.00203841
Si       9.69310728      18.84092619       3.50063688       0.00006899      -0.00006257       0.00209036
Si      12.92414250      19.21400580       3.50063668       0.00005361      -0.00002686       0.00210239
Si      14.21655871      22.19871288       3.50063654       0.00005320       0.00002408       0.00211457
Si      12.27793069      24.81032400       3.50063661       0.00000136      -0.00007322       0.00212764
Si      13.57034608      27.79503016       3.50063707       0.00001790       0.00001281       0.00206163
Si      16.80138426      28.16810803       3.50063698       0.00000414      -0.00000091       0.00205438
Si      18.09379915      31.15281599       3.50063674       0.00001249       0.00000812       0.00207743
Si      16.15517118      33.76442229       3.50063661      -0.00003337      -0.00004692       0.00208712
Si      17.44758825      36.74913337       3.50063640      -0.00015852       0.00002116       0.00212980
Si      20.67862223      37.12221239       3.50063651       0.00006646       0.00002057       0.00211263
Si      21.97103857      40.10691661       3.50063657       0.00001523      -0.00002651       0.00210209
Si      20.03240780      42.71852849       3.50063659       0.00004445      -0.00014443       0.00211928
Si      21.32482578      45.70323718       3.50063692       0.00001635       0.00013667       0.00207860
Si      24.55586218      46.07631098       3.50063624       0.00000195       0.00012281       0.00212220
Si      25.84827862      49.06102015       3.50063693       0.00004663       0.00004257       0.00211003
Si      23.90964924      51.67263244       3.50063656       0.00002484      -0.00000655       0.00213851