4632
Lattice="78.26259368875476 0.0 0.0 0.0 135.55478860104262 0.0 0.0 0.0 100.0" Properties=species:S:1:pos:R:3:forces:R:3 energy=-1583608.7212219238 free_energy=-1583608.7212219238 pbc="T T T"
Si       0.55767117     133.47757734       3.50066612      -0.00049183       0.00052214       0.00171295
Si       1.36869568     122.24008833       3.50065134      -0.00042665      -0.00009532       0.00200910
Si       2.78784067     125.16659147       3.50062416       0.00020297       0.00014563       0.00227015
Si       0.96317721     127.85896244       3.50065211      -0.00041759      -0.00034182       0.00185223
Si       2.38236719     130.78538999       3.50061155      -0.00010865      -0.00020018       0.00245851
Si       5.62630419     131.01950166       3.50062503       0.00060194      -0.00008040       0.00206533
Si       7.04567119     133.94582574       3.50065226       0.00000523       0.00022329       0.00187855
Si       2.17972645     111.00231467       3.50065285      -0.00038885       0.00010304       0.00184064
Si       3.59886877     113.92882240       3.50062299       0.00010287      -0.00009954       0.00235831
Si       1.77421105     116.62119885       3.50065321      -0.00029782      -0.00011044       0.00187582
Si       3.19335594     119.54770800       3.50062451       0.00005573      -0.00008228       0.00227520
Si       6.43735833     119.78182601       3.50063577       0.00033094       0.00003008       0.00206256
Si       7.85662290     122.70832971       3.50063662       0.00014826       0.00009310       0.00212419
Si       6.03184504     125.40070614       3.50063626       0.00029696      -0.00012816       0.00206188
Si       7.45111659     128.32720598       3.50063575       0.00009828      -0.00032193       0.00218445
Si      10.69517215     128.56131159       3.50063396       0.00001877      -0.00015057       0.00217685
Si      12.11449622     131.48774028       3.50062791      -0.00016998      -0.00033701       0.00208767
Si      10.28966173     134.17994171       3.50064946      -0.00000215      -0.00004123       0.00195970
Si       0.15221449      93.91149721       3.50065027      -0.00040093      -0.00020092       0.00206094
Si       2.99076182      99.76452576       3.50065192      -0.00043276       0.00002119       0.00197255
Si       4.40989971     102.69104059       3.50062207       0.00009447      -0.00015747       0.00241419
Si       2.58524018     105.38342637       3.50065256      -0.00032719       0.00009791       0.00194719
Si       4.00438362     108.30993677       3.50062398       0.00015687      -0.00044568       0.00223095
Si       7.24838659     108.54404254       3.50063529       0.00033459      -0.00002891       0.00207198
Si       8.66765418     111.47055071       3.50063665       0.00008909       0.00012527       0.00214243
Si       6.84287130     114.16293155       3.50063625       0.00035527       0.00011989       0.00200137
Si       8.26213941     117.08944437       3.50063848       0.00005173      -0.00016126       0.00197008
Si      11.50620562     117.32355214       3.50063714      -0.00001499      -0.00030386       0.00208572
Si      12.92548674     120.25005847       3.50063676       0.00008881      -0.00000990       0.00209163
Si      11.10069024     122.94244573       3.50063666      -0.00005374      -0.00007404       0.00211840
Si      12.51997252     125.86894885       3.50063794      -0.00001490      -0.00005557       0.00199029
Si      15.76403944     126.10305519       3.50063808       0.00003097       0.00012887       0.00198432
Si      17.18332546     129.02955901       3.50063671       0.00029657      -0.00008767       0.00209746
Si      15.35850091     131.72184678       3.50062246       0.00031377      -0.00000502       0.00239187
Si      16.77788282     134.64817055       3.50065175      -0.00006747       0.00029659       0.00208149
Si      20.02187455     134.88229449       3.50064765      -0.00015732       0.00032298       0.00203323
Si       0.96323990      82.67372540       3.50065180      -0.00045466      -0.00019356       0.00196509
Si       0.55772618      88.29260665       3.50065190      -0.00039497      -0.00004393       0.00193254
Si       3.80167239      88.52676171       3.50062466       0.00001025      -0.00008917       0.00226210
Si       5.22085624      91.45326622       3.50063519       0.00036005      -0.00015403       0.00199163
Si       3.39615818      94.14564673       3.50062484      -0.00008566      -0.00000449       0.00220033
Si       4.81538517      97.07210888       3.50062820       0.00006145       0.00047014       0.00222129
Si       8.05940759      97.30626343       3.50063649       0.00027886      -0.00002808       0.00207741
Si       9.47867943     100.23277301       3.50063766       0.00012233       0.00012570       0.00198396
Si       7.65390204     102.92515143       3.50063499       0.00032318       0.00006463       0.00211320
Si       9.07316761     105.85165904       3.50063758       0.00002494      -0.00003681       0.00208203
Si      12.31723499     106.08577889       3.50063732      -0.00004921      -0.00007673       0.00207869
Si      13.73651436     109.01228684       3.50063649       0.00001803       0.00011170       0.00209342
Si      11.91172127     111.70466000       3.50063673       0.00002694       0.00014078       0.00213007
Si      13.33100048     114.63117256       3.50063768       0.00004706      -0.00000208       0.00203887
Si      16.57507010     114.86528689       3.50063676      -0.00006259      -0.00006213       0.00212197
Si      17.99435109     117.79179182       3.50063624      -0.00004765       0.00018127       0.00210423
Si      16.16955541     120.48416904       3.50063697      -0.00000649       0.00006563       0.00207567
Si      17.58883745     123.41068247       3.50063751       0.00008085      -0.00020987       0.00203049
Si      20.83290490     123.64479174       3.50063697      -0.00001513      -0.00015476       0.00206417
Si      22.25218864     126.57129513       3.50063734       0.00002011      -0.00008241       0.00216788
Si      20.42738964     129.26367034       3.50063786      -0.00016050      -0.00025879       0.00209559
Si      21.84671150     132.19008642       3.50062451      -0.00038516      -0.00054098       0.00223480
Si      25.09070375     132.42417216       3.50062199      -0.00003522      -0.00089413       0.00216335
Si      26.51011607     135.35043694       3.50064763      -0.00012603       0.00130889       0.00211872
Si       0.35497176      68.50944862       3.50065081      -0.00027848       0.00010830       0.00199108
Si       1.77420023      71.43593427       3.50064241      -0.00006534       0.00002436       0.00210355
Si       1.36875495      77.05483314       3.50065037      -0.00050478       0.00019759       0.00206129
Si       4.61269980      77.28897908       3.50062437       0.00008193       0.00006085       0.00228317
Si       6.03188579      80.21548029       3.50063650       0.00036706       0.00019881       0.00185235
Si       4.20718739      82.90787562       3.50062434       0.00010408      -0.00054551       0.00234326
Si       5.62637187      85.83437256       3.50063506       0.00039142       0.00046538       0.00199861
Si       8.87042949      86.06848506       3.50063726       0.00011589       0.00012762       0.00207468
Si      10.28970831      88.99499274       3.50063679       0.00015305      -0.00020443       0.00208476
Si       8.46491230      91.68737806       3.50063630       0.00021243      -0.00009267       0.00218995
Si       9.88419488      94.61388863       3.50063685       0.00008706      -0.00008554       0.00209239
Si      13.12826134      94.84799265       3.50063684       0.00006838       0.00003822       0.00213068
Si      14.54754454      97.77450380       3.50063769      -0.00001810      -0.00009413       0.00205025
Si      12.72274749     100.46688666       3.50063708      -0.00004252      -0.00002400       0.00205978
Si      14.14202957     103.39339723       3.50063636       0.00001146       0.00014052       0.00212635
Si      17.38609867     103.62750179       3.50063699      -0.00006079       0.00013352       0.00206279
Si      18.80538106     106.55401471       3.50063567      -0.00007864      -0.00011877       0.00215685
Si      16.98058179     109.24639731       3.50063707       0.00007276      -0.00004906       0.00210987
Si      18.39986378     112.17290327       3.50063676       0.00003070       0.00015038       0.00208702
Si      21.64393082     112.40701190       3.50063691       0.00020516       0.00040246       0.00217063
Si      23.06321379     115.33352648       3.50063722       0.00012010      -0.00016375       0.00199079
Si      21.23841796     118.02590809       3.50063655       0.00008171      -0.00017830       0.00213424
Si      22.65769982     120.95241311       3.50063665       0.00007287       0.00015756       0.00208012
Si      25.90176935     121.18653002       3.50063712      -0.00007308      -0.00023151       0.00206228
Si      27.32104724     124.11303502       3.50063697       0.00012820       0.00002686       0.00210190
Si      25.49625511     126.80541572       3.50063617      -0.00001762       0.00004855       0.00210061
Si      26.91553693     129.73189732       3.50063388      -0.00003970      -0.00064080       0.00208513
Si      30.15957229     129.96593385       3.50062575       0.00013513       0.00019735       0.00219796
Si      31.57893546     132.89228581       3.50065754      -0.00005179       0.00010386       0.00190870
Si       1.16600650      57.27168924       3.50065234      -0.00059112      -0.00017154       0.00198604
Si       2.58514880      60.19819517       3.50062306       0.00006216       0.00000845       0.00233458
Si       0.76049087      62.89058130       3.50065218      -0.00056405      -0.00020627       0.00191222
Si       2.17963615      65.81707846       3.50062326       0.00006645       0.00015373       0.00228072
Si       5.42363824      66.05119879       3.50063610       0.00025482       0.00000435       0.00202063
Si       6.84291056      68.97770199       3.50063673       0.00004260       0.00018788       0.00204063
Si       5.01817691      71.67008770       3.50062984       0.00007574      -0.00026484       0.00218798
Si       6.43739616      74.59659559       3.50063534       0.00024662       0.00002306       0.00206799
Si       9.68145460      74.83070860       3.50063723       0.00007557      -0.00015135       0.00211294
Si      11.10073587      77.75721985       3.50063799       0.00004073       0.00001500       0.00199405
Si       9.27594364      80.44960080       3.50063768      -0.00002806      -0.00001881       0.00206212
Si      10.69522316      83.37610918       3.50063621      -0.00002013       0.00022496       0.00214268
Si      13.93928975      83.61021833       3.50063669      -0.00006197       0.00003895       0.00212499
Si      15.35857122      86.53672663       3.50063626       0.00004158       0.00018709       0.00214144
Si      13.53377775      89.22910665       3.50063609      -0.00005103       0.00000449       0.00216697
Si      14.95305720      92.15561686       3.50063677       0.00008170      -0.00015364       0.00208948
Si      18.19712606      92.38973170       3.50063700      -0.00006268      -0.00013209       0.00207787
Si      19.61640692      95.31623777       3.50063590       0.00000381       0.00003641       0.00218251
Si      17.79161324      98.00861521       3.50063675      -0.00000626      -0.00002418       0.00210555
Si      19.21089414     100.93512539       3.50063711       0.00000347      -0.00002552       0.00208366
Si      22.45496125     101.16923619       3.50063739       0.00006452       0.00026440       0.00205280
Si      23.87424336     104.09574733       3.50063659      -0.00003383       0.00007030       0.00208971
Si      22.04944849     106.78812046       3.50063612       0.00002515      -0.00002044       0.00217251
Si      23.46872979     109.71463461       3.50063713       0.00013173      -0.00012477       0.00204738
Si      26.71279877     109.94874616       3.50063710      -0.00007177      -0.00011125       0.00205395
Si      28.13207918     112.87525210       3.50063629      -0.00010326       0.00004944       0.00219618
Si      26.30728537     115.56763559       3.50063570      -0.00019210      -0.00015670       0.00215993
Si      27.72656577     118.49414393       3.50063672      -0.00003409       0.00004737       0.00212637
Si      30.97063543     118.72825459       3.50063682      -0.00006245      -0.00026578       0.00212157
Si      32.38991659     121.65476483       3.50063700       0.00002444      -0.00005114       0.00210573
Si      30.56511818     124.34713736       3.50063683      -0.00011575       0.00005033       0.00212641
Si      31.98440616     127.27363594       3.50063588       0.00012737      -0.00005567       0.00210304
Si      35.22846598     127.50774743       3.50063666      -0.00003284      -0.00010985       0.00204864
Si      36.64779202     130.43418377       3.50062432      -0.00019494      -0.00050525       0.00230052
Si      34.82295124     133.12637736       3.50064945      -0.00028069       0.00035095       0.00198687
Si       1.97703299      46.03390855       3.50065239      -0.00044500       0.00002249       0.00192265
Si       3.39617645      48.96041681       3.50062334       0.00011436      -0.00007561       0.00234854
Si       1.57151814      51.65280391       3.50065292      -0.00037245      -0.00008235       0.00185187
Si       2.99066294      54.57930927       3.50062283       0.00009552       0.00008306       0.00231235
Si       6.23466478      54.81341970       3.50063598       0.00039668       0.00020099       0.00208037
Si       7.65393163      57.73993258       3.50063757       0.00010701      -0.00009396       0.00204528
Si       5.82915078      60.43230911       3.50063529       0.00034968      -0.00000327       0.00209306
Si       7.24841746      63.35881688       3.50063726       0.00009796      -0.00005184       0.00211693
Si      10.49248412      63.59293220       3.50063678       0.00001678      -0.00011128       0.00209574
Si      11.91176605      66.51944511       3.50063774      -0.00004173      -0.00025979       0.00201920
Si      10.08697283      69.21182190       3.50063705      -0.00012331      -0.00003471       0.00201281
Si      11.50625136      72.13832664       3.50063643       0.00009172       0.00022515       0.00215020
Si      14.75031941      72.37243744       3.50063683       0.00009610       0.00005734       0.00212877
Si      16.16960093      75.29894776       3.50063795       0.00006240      -0.00018354       0.00199885
Si      14.34480394      77.99133482       3.50063646       0.00006559      -0.00018797       0.00216937
Si      15.76408586      80.91784308       3.50063732       0.00007602      -0.00020208       0.00211091
Si      19.00815371      81.15194496       3.50063671       0.00010058       0.00000203       0.00209056
Si      20.42743541      84.07845734       3.50063715       0.00005895      -0.00008482       0.00209798
Si      18.60263954      86.77084375       3.50063647      -0.00007523      -0.00011697       0.00211316
Si      20.02192059      89.69734710       3.50063656       0.00000936       0.00007698       0.00211601
Si      23.26599117      89.93146173       3.50063597      -0.00002918      -0.00039420       0.00217629
Si      24.68527257      92.85796611       3.50063687       0.00000307       0.00047990       0.00208158
Si      22.86047419      95.55035085       3.50063680       0.00002115      -0.00024472       0.00213744
Si      24.27975679      98.47685691       3.50063674       0.00008240       0.00001312       0.00210721
Si      27.52382557      98.71096412       3.50063622       0.00008100       0.00049146       0.00210792
Si      28.94310873     101.63748311       3.50063682      -0.00012266      -0.00037660       0.00209810
Si      27.11831006     104.32986150       3.50063673      -0.00005042      -0.00023337       0.00215432
Si      28.53759151     107.25636742       3.50063687      -0.00003597       0.00008121       0.00209967
Si      31.78166056     107.49047817       3.50063612       0.00007049      -0.00008145       0.00217360
Si      33.20094347     110.41698905       3.50063727       0.00006205      -0.00001654       0.00203772
Si      31.37614685     113.10936878       3.50063723       0.00009125       0.00007489       0.00208991
Si      32.79542780     116.03588083       3.50063677       0.00008867      -0.00011970       0.00207547
Si      36.03949580     116.26998997       3.50063794      -0.00006497       0.00007568       0.00196818
Si      37.45878009     119.19649570       3.50063614       0.00004106       0.00008686       0.00210751
Si      35.63398383     121.88887678       3.50063680      -0.00000040      -0.00005773       0.00211900
Si      37.05326543     124.81537819       3.50063703      -0.00000940       0.00008702       0.00208991
Si      40.29733299     125.04949981       3.50063622       0.00004891      -0.00035633       0.00222204
Si      41.71662142     127.97599149       3.50063480       0.00006185      -0.00011226       0.00208206
Si      39.89179510     130.66827386       3.50062438       0.00007801       0.00031522       0.00223862
Si      41.31117448     133.59461293       3.50065273      -0.00012030      -0.00051691       0.00199355
Si      44.55516939     133.82871676       3.50064855       0.00004138       0.00081406       0.00218989
Si       2.78806176      34.79613008       3.50065344      -0.00033901       0.00000790       0.00185052
Si       4.20720505      37.72264197       3.50062298       0.00014210      -0.00015764       0.00233834
Si       2.38254870      40.41502626       3.50065228      -0.00041781      -0.00015374       0.00195399
Si       3.80169110      43.34153007       3.50062254       0.00012636       0.00014793       0.00235099
Si       7.04569412      43.57564564       3.50063612       0.00032076      -0.00003977       0.00201227
Si       8.46496102      46.50215105       3.50063687       0.00005836       0.00002870       0.00211908
Si       6.64018042      49.19453382       3.50063608       0.00025222       0.00002316       0.00201090
Si       8.05944616      52.12104058       3.50063730       0.00006969       0.00004487       0.00206949
Si      11.30351239      52.35515436       3.50063642      -0.00002896      -0.00015473       0.00211422
Si      12.72279336      55.28166222       3.50063679       0.00000553       0.00014115       0.00211251
Si      10.89799862      57.97404048       3.50063636      -0.00004148      -0.00007830       0.00211907
Si      12.31727903      60.90054848       3.50063716       0.00002012       0.00010580       0.00211123
Si      15.56134655      61.13466253       3.50063693       0.00004315       0.00005419       0.00211822
Si      16.98062899      64.06117530       3.50063776       0.00004827      -0.00007219       0.00197786
Si      15.15583289      66.75355253       3.50063602       0.00009021      -0.00018662       0.00220144
Si      16.57511394      69.68006210       3.50063598       0.00013122       0.00017749       0.00211000
Si      19.81918250      69.91417117       3.50063701      -0.00002612       0.00008658       0.00211341
Si      21.23846393      72.84068319       3.50063664      -0.00004802      -0.00005838       0.00210602
Si      19.41367126      75.53306440       3.50063651      -0.00009386      -0.00022423       0.00207437
Si      20.83295133      78.45956513       3.50063675      -0.00001771       0.00007473       0.00211766
Si      24.07701944      78.69368206       3.50063697      -0.00000535       0.00007219       0.00208217
Si      25.49630106      81.62019226       3.50063688      -0.00008868      -0.00003273       0.00210717
Si      23.67150600      84.31256938       3.50063644      -0.00004684      -0.00005921       0.00212871
Si      25.09078580      87.23907180       3.50063665       0.00008101       0.00017672       0.00209416
Si      28.33485431      87.47319007       3.50063710       0.00001897       0.00013391       0.00205885
Si      29.75413526      90.39970446       3.50063587       0.00005138      -0.00007096       0.00214132
Si      27.92934177      93.09207776       3.50063761      -0.00015378      -0.00017478       0.00202609
Si      29.34862269      96.01858764       3.50063705       0.00003395       0.00003324       0.00213200
Si      32.59269129      96.25269444       3.50063701       0.00015121       0.00025692       0.00202027
Si      34.01197095      99.17920600       3.50063694       0.00006126       0.00006756       0.00206278
Si      32.18717512     101.87158641       3.50063655       0.00008316      -0.00003027       0.00213314
Si      33.60645929     104.79809758       3.50063797       0.00007559      -0.00005063       0.00198669
Si      36.85052904     105.03220827       3.50063591      -0.00009335      -0.00024176       0.00216609
Si      38.26981013     107.95871712       3.50063648      -0.00006439       0.00001964       0.00210390
Si      36.44501238     110.65109352       3.50063656       0.00003416       0.00019250       0.00209694
Si      37.86429634     113.57760378       3.50063661      -0.00008522       0.00016965       0.00213022
Si      41.10836345     113.81171611       3.50063667      -0.00004176      -0.00001087       0.00210652
Si      42.52764621     116.73822524       3.50063712      -0.00001576      -0.00005525       0.00206923
Si      40.70284937     119.43060545       3.50063790      -0.00010369       0.00032998       0.00200703
Si      42.12212684     122.35711288       3.50063747       0.00003138       0.00042528       0.00201092
Si      45.36620044     122.59122494       3.50063645      -0.00004332       0.00001841       0.00215789
Si      46.78548044     125.51773587       3.50063756       0.00000684      -0.00026300       0.00203175
Si      44.96068019     128.21010796       3.50063718      -0.00014995      -0.00077910       0.00196917
Si      46.38000727     131.13652663       3.50062459      -0.00015433       0.00008361       0.00217154
Si      49.62400853     131.37063121       3.50062576       0.00034338      -0.00001371       0.00215826
Si      51.04339168     134.29696057       3.50065082      -0.00002234       0.00029854       0.00204723
Si       0.76054609      17.70532149       3.50065192      -0.00037248      -0.00009217       0.00196337
Si       0.35503593      23.32420936       3.50065043      -0.00035145      -0.00009554       0.00199640
Si       3.59897869      23.55835729       3.50062420      -0.00002149      -0.00017691       0.00223434
Si       5.01820504      26.48482198       3.50062845       0.00016041       0.00042592       0.00219781
Si       3.19358107      29.17724409       3.50065307      -0.00044562      -0.00016681       0.00191840
Si       4.61272101      32.10375230       3.50062244       0.00001473       0.00001025       0.00236528
Si       7.85672238      32.33786447       3.50063556       0.00034559       0.00006540       0.00206419
Si       9.27598930      35.26437101       3.50063735       0.00002943       0.00028688       0.00205326
Si       7.45120806      37.95675638       3.50063581       0.00035333      -0.00006948       0.00205740
Si       8.87047515      40.88326467       3.50063717       0.00007304      -0.00006823       0.00206059
Si      12.11454072      41.11737508       3.50063728       0.00003282      -0.00005138       0.00205822
Si      13.53382169      44.04388570       3.50063698      -0.00000215       0.00007174       0.00205437
Si      11.70902723      46.73626184       3.50063675      -0.00001750      -0.00007877       0.00210171
Si      13.12830825      49.66277052       3.50063684       0.00004890       0.00004842       0.00208697
Si      16.37237653      49.89688475       3.50063708      -0.00007784      -0.00002532       0.00203619
Si      17.79165740      52.82339497       3.50063719       0.00005738       0.00000726       0.00208772
Si      15.96686171      55.51577026       3.50063639      -0.00001080       0.00005905       0.00210288
Si      17.38614376      58.44227891       3.50063744      -0.00003692       0.00007731       0.00204146
Si      20.63021106      58.67639457       3.50063652       0.00003211       0.00001304       0.00211548
Si      22.04949398      61.60290388       3.50063672      -0.00000146       0.00002651       0.00208728
Si      20.22469857      64.29528502       3.50063771      -0.00011347      -0.00024942       0.00201277
Si      21.64397873      67.22179077       3.50063762       0.00012347      -0.00000529       0.00198582
Si      24.88804777      67.45590094       3.50063604       0.00004475      -0.00006472       0.00217713
Si      26.30732824      70.38240838       3.50063760       0.00015231       0.00004860       0.00200185
Si      24.48253169      73.07479452       3.50063658      -0.00004859      -0.00004933       0.00213622
Si      25.90181306      76.00129989       3.50063604       0.00001221       0.00027077       0.00213371
Si      29.14588358      76.23540716       3.50063699       0.00000866       0.00044906       0.00206767
Si      30.56516458      79.16192603       3.50063727       0.00010648      -0.00042500       0.00205856
Si      28.74036902      81.85430514       3.50063672      -0.00007329      -0.00004640       0.00212543
Si      30.15964984      84.78080960       3.50063705       0.00000740       0.00024586       0.00206567
Si      33.40371852      85.01492280       3.50063698       0.00012975      -0.00007968       0.00214094
Si      34.82300234      87.94143605       3.50063674      -0.00000732      -0.00004945       0.00210757
Si      32.99820554      90.63381276       3.50063672      -0.00009317      -0.00002679       0.00214512
Si      34.41748496      93.56032373       3.50063620       0.00007959      -0.00005721       0.00212888
Si      37.66155300      93.79442920       3.50063756       0.00006729       0.00036191       0.00203449
Si      39.08083800      96.72094387       3.50063648      -0.00001052      -0.00017284       0.00213306
Si      37.25603975      99.41332258       3.50063705       0.00006016       0.00004266       0.00211149
Si      38.67532203     102.33983366       3.50063681      -0.00012360      -0.00012379       0.00206312
Si      41.91938862     102.57394392       3.50063590       0.00002169      -0.00013632       0.00219999
Si      43.33867107     105.50045362       3.50063698       0.00000969       0.00004965       0.00208203
Si      41.51387284     108.19283128       3.50063683       0.00019622       0.00004356       0.00212304
Si      42.93315922     111.11934521       3.50063593       0.00009896      -0.00017303       0.00210225
Si      46.17722655     111.35345334       3.50063719      -0.00015988      -0.00022305       0.00211034
Si      47.59650993     114.27996210       3.50063643      -0.00007304       0.00005469       0.00209792
Si      45.77171150     116.97233627       3.50063723       0.00005077       0.00008821       0.00207551
Si      47.19099394     119.89884722       3.50063767      -0.00003052      -0.00011544       0.00199903
Si      50.43506305     120.13296157       3.50063649       0.00008540      -0.00022551       0.00210977
Si      51.85434088     123.05946971       3.50063655       0.00026468      -0.00007608       0.00208098
Si      50.02955050     125.75184178       3.50063671      -0.00005962       0.00003259       0.00213788
Si      51.44883567     128.67834985       3.50063648       0.00008075      -0.00019334       0.00210920
Si      54.69289377     128.91244861       3.50063584       0.00002725      -0.00010302       0.00203341
Si      56.11222185     131.83887963       3.50062501      -0.00026807      -0.00026458       0.00232238
Si      54.28738529     134.53108186       3.50065008      -0.00027759       0.00027142       0.00192396
Si       0.15223969       3.54114924       3.50063828      -0.00009265       0.00027214       0.00210873
Si       1.57151243       6.46754683       3.50064174      -0.00013164       0.00041065       0.00203436
Si       1.16606030      12.08643263       3.50065255      -0.00037103       0.00019329       0.00192438
Si       4.41000832      12.32058289       3.50062464      -0.00001911      -0.00007563       0.00224391
Si       5.82919282      15.24708670       3.50063527       0.00031445       0.00002917       0.00199197
Si       4.00449486      17.93947117       3.50062489      -0.00004622      -0.00000979       0.00223301
Si       5.42367802      20.86597693       3.50063525       0.00035119      -0.00001556       0.00201162
Si       8.66773542      21.10008781       3.50063758       0.00006621      -0.00007432       0.00207401
Si      10.08701573      24.02659447       3.50063669       0.00006021       0.00011517       0.00209585
Si       8.26222964      26.71897295       3.50063683       0.00021420      -0.00002929       0.00205124
Si       9.68150178      29.64548441       3.50063687       0.00014250      -0.00002601       0.00210554
Si      12.92556894      29.87959492       3.50063689       0.00000203      -0.00003374       0.00209869
Si      14.34485094      32.80610533       3.50063668       0.00006329      -0.00002425       0.00210790
Si      12.52005579      35.49848571       3.50063693      -0.00004343       0.00000021       0.00211356
Si      13.93933701      38.42499217       3.50063701      -0.00002304       0.00014086       0.00207294
Si      17.18340519      38.65910813       3.50063687      -0.00000331      -0.00010752       0.00212236
Si      18.60268651      41.58561556       3.50063671      -0.00001504       0.00003910       0.00210854
Si      16.77789055      44.27799444       3.50063647      -0.00004010      -0.00015399       0.00208796
Si      18.19717231      47.20450238       3.50063648       0.00002448       0.00001787       0.00213240