5208
Lattice="82.98611797522392 0.0 0.0 0.0 143.73617265599276 0.0 0.0 0.0 100.0" Properties=species:S:1:pos:R:3:forces:R:3 energy=-1780534.1598052979 free_energy=-1780534.1598052979 pbc="T T T"
Si       0.66934731     136.00929859       3.50065263      -0.00060295       0.00055144       0.00203754
Si       2.19895245     138.87955890       3.50060872      -0.00014796      -0.00108642       0.00255340
Si       0.47813199     141.63928222       3.50066688      -0.00074297       0.00062853       0.00170971
Si       1.05178888     124.74881222       3.50065450      -0.00037081      -0.00000739       0.00184126
Si       2.58135276     127.61914497       3.50062162      -0.00000298       0.00023700       0.00237263
Si       0.86056632     130.37906728       3.50065476      -0.00015062      -0.00008457       0.00176148
Si       2.39013300     133.24940273       3.50062046       0.00013734      -0.00108443       0.00245338
Si       5.64069236     133.35979079       3.50063562       0.00042693       0.00008439       0.00204322
Si       7.17039054     136.23011096       3.50063601       0.00001458      -0.00039973       0.00209317
Si       5.44944220     138.98993739       3.50062338       0.00058294      -0.00060889       0.00208761
Si       6.97924589     141.86007063       3.50065371       0.00012491       0.00031552       0.00197249
Si      10.22979586     141.97046996       3.50064858       0.00000997       0.00017481       0.00209379
Si       1.43422973     113.48829747       3.50065389      -0.00054425      -0.00004463       0.00192483
Si       2.96379009     116.35863637       3.50062164       0.00011233       0.00015034       0.00237942
Si       1.24300642     119.11855605       3.50065493      -0.00026133       0.00020844       0.00173263
Si       2.77256974     121.98888401       3.50062239       0.00015224      -0.00010994       0.00229913
Si       6.02313064     122.09927767       3.50063564       0.00034707      -0.00018978       0.00201910
Si       7.55282632     124.96961753       3.50063625       0.00001487      -0.00018437       0.00214550
Si       5.83191128     127.72953628       3.50063605       0.00029124       0.00002909       0.00200706
Si       7.36160579     130.59986926       3.50063605       0.00005853      -0.00005026       0.00209932
Si      10.61223345     130.71025515       3.50063690       0.00005438       0.00023490       0.00213179
Si      12.14194501     133.58058725       3.50063761       0.00004778       0.00010361       0.00198100
Si      10.42101037     136.34050256       3.50063546       0.00009838      -0.00024401       0.00221198
Si      11.95076269     139.21073975       3.50062287       0.00003018      -0.00007150       0.00219577
Si      15.20132526     139.32112277       3.50062426       0.00020816      -0.00019514       0.00218966
Si      16.73114695     142.19125607       3.50065233      -0.00007936       0.00010025       0.00198886
Si       1.81666571     102.22778270       3.50065444      -0.00038784      -0.00001431       0.00190453
Si       3.34622982     105.09812303       3.50062225       0.00009661       0.00003582       0.00230472
Si       1.62544793     107.85804676       3.50065271      -0.00046467      -0.00017740       0.00197392
Si       3.15500846     110.72837241       3.50062101       0.00014744       0.00000193       0.00239007
Si       6.40556846     110.83876335       3.50063499       0.00045608       0.00008827       0.00204606
Si       7.93526384     113.70910206       3.50063659       0.00011733       0.00012386       0.00209757
Si       6.21434993     116.46902724       3.50063645       0.00042257       0.00008851       0.00202532
Si       7.74404269     119.33934925       3.50063747       0.00010045       0.00023066       0.00200984
Si      10.99467166     119.44974133       3.50063721       0.00001381       0.00000648       0.00203213
Si      12.52438458     122.32007850       3.50063735       0.00001761      -0.00005066       0.00203743
Si      10.80345511     125.08000251       3.50063700      -0.00002234      -0.00015061       0.00208489
Si      12.33316374     127.95032561       3.50063575       0.00008650      -0.00009329       0.00212053
Si      15.58379405     128.06072021       3.50063743       0.00008134       0.00033217       0.00212311
Si      17.11350518     130.93105395       3.50063708      -0.00010144      -0.00020815       0.00199339
Si      15.39257468     133.69097201       3.50063561       0.00003577       0.00007034       0.00213795
Si      16.92229011     136.56129207       3.50063457       0.00021965      -0.00019331       0.00215718
Si      20.17291389     136.67168000       3.50063405      -0.00026710      -0.00030872       0.00224155
Si      21.70266999     139.54192143       3.50062467      -0.00032535       0.00001506       0.00221467
Si      19.98169624     142.30165825       3.50065122       0.00000098      -0.00010422       0.00184632
Si       2.19910262      90.96727297       3.50065593      -0.00030634      -0.00029345       0.00172368
Si       3.72866973      93.83760979       3.50062129      -0.00007371      -0.00010884       0.00247685
Si       2.00788596      96.59752968       3.50065393      -0.00042915       0.00023803       0.00182306
Si       3.53744730      99.46785747       3.50062187       0.00009865      -0.00003095       0.00233102
Si       6.78800741      99.57824958       3.50063481       0.00039187       0.00001551       0.00204870
Si       8.31770324     102.44858805       3.50063713      -0.00001355       0.00004787       0.00208845
Si       6.59678868     105.20851257       3.50063504       0.00038027       0.00008803       0.00208361
Si       8.12648178     108.07883800       3.50063753       0.00012250       0.00016051       0.00198155
Si      11.37711123     108.18922589       3.50063687      -0.00005227       0.00000882       0.00208684
Si      12.90682393     111.05956519       3.50063665      -0.00008407       0.00001059       0.00212557
Si      11.18589366     113.81948807       3.50063761      -0.00004741       0.00006974       0.00204456
Si      12.71560253     116.68981436       3.50063631       0.00001990       0.00020538       0.00209504
Si      15.96623371     116.80019949       3.50063767      -0.00008203       0.00009297       0.00202883
Si      17.49594446     119.67054018       3.50063740      -0.00003844       0.00006628       0.00208659
Si      15.77501479     122.43046723       3.50063686      -0.00007636      -0.00015419       0.00202654
Si      17.30472443     125.30079064       3.50063518       0.00003991      -0.00006694       0.00219774
Si      20.55535393     125.41118040       3.50063660       0.00011920       0.00007176       0.00212016
Si      22.08506646     128.28151946       3.50063739       0.00008534      -0.00044162       0.00199536
Si      20.36413468     131.04143607       3.50063643       0.00003901      -0.00026406       0.00211117
Si      21.89384581     133.91176495       3.50063688       0.00013616       0.00049589       0.00209676
Si      25.14447738     134.02215924       3.50063641      -0.00003847      -0.00031740       0.00212174
Si      26.67419666     136.89247653       3.50063527      -0.00006195      -0.00034678       0.00210182
Si      24.95322863     139.65230671       3.50062407       0.00022106      -0.00046179       0.00221277
Si      26.48305121     142.52242669       3.50065287      -0.00018916       0.00091098       0.00208777
Si      29.73359981     142.63284040       3.50064848      -0.00004035       0.00001992       0.00201430
Si       2.58154428      79.70675612       3.50065466      -0.00049381      -0.00022000       0.00177236
Si       4.11110598      82.57709691       3.50062289       0.00014420      -0.00016212       0.00231458
Si       2.39032402      85.33701928       3.50065175      -0.00052791      -0.00021174       0.00200151
Si       3.91988587      88.20733830       3.50062131       0.00012697       0.00061010       0.00239245
Si       7.17044638      88.31773606       3.50063528       0.00033759       0.00007749       0.00203522
Si       8.70014182      91.18807492       3.50063738       0.00002552       0.00004080       0.00208164
Si       6.97922729      93.94800068       3.50063425       0.00045840       0.00007923       0.00210246
Si       8.50891874      96.81832464       3.50063737       0.00022438       0.00019118       0.00201707
Si      11.75955128      96.92871249       3.50063775      -0.00007347       0.00004423       0.00200804
Si      13.28926258      99.79904998       3.50063569       0.00001292      -0.00009645       0.00214198
Si      11.56833310     102.55897634       3.50063670       0.00004564       0.00005617       0.00217663
Si      13.09804022     105.42929765       3.50063703       0.00016519       0.00031868       0.00200126
Si      16.34867123     105.53968921       3.50063620      -0.00000061       0.00000980       0.00218030
Si      17.87838243     108.41002452       3.50063624       0.00008579      -0.00008843       0.00215539
Si      16.15745337     111.16995148       3.50063733      -0.00000581      -0.00013238       0.00203237
Si      17.68716188     114.04027931       3.50063706      -0.00001355       0.00013501       0.00201396
Si      20.93779414     114.15066716       3.50063685       0.00003435      -0.00010994       0.00208526
Si      22.46750875     117.02099938       3.50063754      -0.00014016       0.00031572       0.00202863
Si      20.74657731     119.78092925       3.50063737      -0.00013834      -0.00006423       0.00205497
Si      22.27628459     122.65125465       3.50063667       0.00005515       0.00011720       0.00211919
Si      25.52691616     122.76163965       3.50063626       0.00000283       0.00004709       0.00217971
Si      27.05662904     125.63197723       3.50063601      -0.00000671      -0.00010550       0.00215812
Si      25.33569635     128.39190771       3.50063564      -0.00009091      -0.00021157       0.00217891
Si      26.86540913     131.26222497       3.50063720       0.00007534       0.00048698       0.00203779
Si      30.11603842     131.37261595       3.50063674       0.00009678       0.00030695       0.00215328
Si      31.64574913     134.24294914       3.50063912       0.00018313      -0.00066411       0.00181937
Si      29.92481417     137.00284855       3.50063442       0.00000412       0.00000727       0.00225195
Si      31.45457391     139.87310845       3.50062466      -0.00039460      -0.00023885       0.00209343
Si      34.70512921     139.98348656       3.50062149       0.00029743      -0.00024656       0.00231851
Si      36.23495238     142.85361876       3.50065446       0.00018901       0.00022025       0.00193223
Si       2.96398153      68.44624672       3.50065372      -0.00034487       0.00015736       0.00185643
Si       4.49354511      71.31657884       3.50062217       0.00009140       0.00001882       0.00234440
Si       2.77276580      74.07650773       3.50065306      -0.00055061      -0.00005061       0.00181701
Si       4.30232495      76.94682890       3.50062215       0.00013815       0.00000227       0.00230672
Si       7.55288569      77.05722254       3.50063540       0.00030480       0.00005006       0.00200848
Si       9.08258080      79.92755810       3.50063757       0.00007507       0.00008782       0.00204650
Si       7.36166769      82.68748453       3.50063532       0.00035992       0.00002219       0.00201389
Si       8.89136078      85.55781445       3.50063689      -0.00002454      -0.00017090       0.00210259
Si      12.14198893      85.66819633       3.50063779       0.00008632      -0.00013551       0.00205512
Si      13.67169938      88.53853592       3.50063766       0.00004614       0.00001367       0.00200546
Si      11.95077091      91.29846349       3.50063552       0.00001715      -0.00008884       0.00215278
Si      13.48048059      94.16878426       3.50063579       0.00003926       0.00017341       0.00215335
Si      16.73111097      94.27917205       3.50063685       0.00003181      -0.00000815       0.00206644
Si      18.26082269      97.14951341       3.50063627       0.00002804       0.00002496       0.00212171
Si      16.53989329      99.90943783       3.50063772      -0.00004000      -0.00000016       0.00200195
Si      18.06960221     102.77976302       3.50063541      -0.00004373       0.00009727       0.00219622
Si      21.32023391     102.89015109       3.50063719      -0.00013946       0.00006866       0.00205315
Si      22.84994492     105.76048917       3.50063609      -0.00002709      -0.00004994       0.00210003
Si      21.12901658     108.52041457       3.50063640      -0.00011896      -0.00008561       0.00217107
Si      22.65872448     111.39074093       3.50063618       0.00005036       0.00003031       0.00213222
Si      25.90935581     111.50112745       3.50063622      -0.00006152       0.00005282       0.00214334
Si      27.43906655     114.37146048       3.50063703       0.00003038      -0.00003316       0.00205255
Si      25.71813650     117.13139122       3.50063722       0.00005230      -0.00006701       0.00203336
Si      27.24784608     120.00171473       3.50063632       0.00009759       0.00015767       0.00214683
Si      30.49847914     120.11210293       3.50063635      -0.00009239      -0.00009555       0.00216054
Si      32.02818850     122.98243495       3.50063677      -0.00002759      -0.00015257       0.00208951
Si      30.30725969     125.74236313       3.50063614      -0.00006593       0.00013201       0.00208973
Si      31.83697052     128.61270035       3.50063680       0.00002371      -0.00019118       0.00210589
Si      35.08759829     128.72308407       3.50063586       0.00019228       0.00013032       0.00214558
Si      36.61730787     131.59341391       3.50063805       0.00028545      -0.00078103       0.00196718
Si      34.89638286     134.35333423       3.50063553      -0.00007208      -0.00048083       0.00230705
Si      36.42609764     137.22366095       3.50063763       0.00021918      -0.00052896       0.00197932
Si      39.67672115     137.33404311       3.50063569      -0.00017499      -0.00031285       0.00212096
Si      41.20647251     140.20428703       3.50062253      -0.00009078      -0.00017435       0.00219533
Si      39.48550487     142.96402076       3.50064883      -0.00013683       0.00010315       0.00201989
Si       0.28702222      51.44505646       3.50065139      -0.00061114       0.00005361       0.00210623
Si       0.09580362      57.07531414       3.50065096      -0.00033746       0.00004127       0.00205087
Si       3.34630149      57.18573692       3.50062301       0.00000487      -0.00014270       0.00226334
Si       4.87594990      60.05602410       3.50062757       0.00023883       0.00028401       0.00223177
Si       3.15520640      62.81598669       3.50065184      -0.00033435      -0.00008546       0.00205792
Si       4.68476406      65.68632488       3.50062258       0.00011387      -0.00009790       0.00232530
Si       7.93532577      65.79671826       3.50063490       0.00040952      -0.00022404       0.00211417
Si       9.46501950      68.66703894       3.50063702       0.00013253       0.00039298       0.00209856
Si       7.74410571      71.42697289       3.50063523       0.00038546      -0.00000270       0.00200099
Si       9.27379909      74.29730083       3.50063704       0.00002899      -0.00017403       0.00207469
Si      12.52442934      74.40768422       3.50063650      -0.00003185      -0.00011442       0.00214609
Si      14.05413908      77.27802429       3.50063724      -0.00001683       0.00010155       0.00206561
Si      12.33320986      80.03794550       3.50063693       0.00004008       0.00009974       0.00201883
Si      13.86291923      82.90828156       3.50063692       0.00012071      -0.00036320       0.00200980
Si      17.11354954      83.01865785       3.50063720      -0.00005181      -0.00005388       0.00204962
Si      18.64326118      85.88899915       3.50063668       0.00005926       0.00000232       0.00214705
Si      16.92233238      88.64892465       3.50063746      -0.00009418      -0.00006558       0.00201682
Si      18.45204051      91.51925151       3.50063672       0.00009553       0.00041910       0.00208083
Si      21.70267327      91.62963697       3.50063812      -0.00012881       0.00011651       0.00196890
Si      23.23238263      94.49997597       3.50063672       0.00018469      -0.00004164       0.00203104
Si      21.51145488      97.25990117       3.50063662      -0.00007632      -0.00004669       0.00210757
Si      23.04116483     100.13023120       3.50063530      -0.00007662      -0.00014342       0.00216189
Si      26.29179575     100.24061362       3.50063637       0.00009769      -0.00014835       0.00216204
Si      27.82150535     103.11094574       3.50063597       0.00007997      -0.00001725       0.00208864
Si      26.10057533     105.87087619       3.50063721       0.00010731       0.00025074       0.00210245
Si      27.63028576     108.74121128       3.50063614      -0.00007958      -0.00025708       0.00216340
Si      30.88091641     108.85159749       3.50063617       0.00005989      -0.00069795       0.00221960
Si      32.41062876     111.72191968       3.50063728      -0.00003395       0.00015864       0.00200420
Si      30.68969842     114.48185338       3.50063667      -0.00017419       0.00007534       0.00208526
Si      32.21940754     117.35217713       3.50063695       0.00015142       0.00039047       0.00207624
Si      35.47003672     117.46256574       3.50063636       0.00019537       0.00033414       0.00215729
Si      36.99975162     120.33289827       3.50063743       0.00011781      -0.00019061       0.00204971
Si      35.27881991     123.09283052       3.50063713       0.00011017       0.00004214       0.00202306
Si      36.80852961     125.96315366       3.50063597       0.00006053       0.00063947       0.00212221
Si      40.05916385     126.07354483       3.50063777      -0.00014129      -0.00007117       0.00195838
Si      41.58887324     128.94387248       3.50063800      -0.00019778       0.00005105       0.00193486
Si      39.86794384     131.70380945       3.50063625      -0.00012072      -0.00046810       0.00210961
Si      41.39765270     134.57413606       3.50063753       0.00011765      -0.00054123       0.00202343
Si      44.64828611     134.68451497       3.50063776       0.00000499       0.00042867       0.00197504
Si      46.17800151     137.55483495       3.50063613       0.00003365      -0.00018550       0.00207657
Si      44.45703391     140.31467496       3.50062467       0.00023887      -0.00061798       0.00214474
Si      45.98685634     143.18480386       3.50065045       0.00011097      -0.00029344       0.00216071
Si      49.23740682     143.29520763       3.50064898      -0.00010928      -0.00025640       0.00198904
Si       0.66946201      40.18454231       3.50065173      -0.00052558       0.00015499       0.00203085
Si       0.47824048      45.81479753       3.50065179      -0.00046690       0.00019100       0.00200523
Si       3.72874340      45.92522517       3.50062393      -0.00007546      -0.00003075       0.00222097
Si       5.25834764      48.79555294       3.50063541       0.00032172      -0.00004538       0.00195434
Si       3.53752363      51.55548261       3.50062309       0.00000056      -0.00006665       0.00228832
Si       5.06712770      54.42580817       3.50063499       0.00033255       0.00001777       0.00204532
Si       8.31774626      54.53620031       3.50063754       0.00011395      -0.00004337       0.00210020
Si       9.84745609      57.40652794       3.50063664       0.00010828       0.00001489       0.00212751
Si       8.12653648      60.16645551       3.50063631       0.00025568       0.00013695       0.00209356
Si       9.65623712      63.03678483       3.50063717       0.00020205      -0.00009464       0.00197537
Si      12.90686771      63.14717818       3.50063771      -0.00007654      -0.00007251       0.00203416
Si      14.43657639      66.01750612       3.50063622       0.00007579      -0.00001705       0.00213572
Si      12.71564778      68.77743275       3.50063644       0.00003884       0.00000619       0.00213197
Si      14.24535825      71.64776621       3.50063679       0.00006951      -0.00038315       0.00202678
Si      17.49598875      71.75814793       3.50063740      -0.00002518       0.00017618       0.00203896
Si      19.02569869      74.62848665       3.50063731       0.00000795      -0.00010645       0.00201679
Si      17.30477080      77.38841298       3.50063693      -0.00009785      -0.00016362       0.00202778
Si      18.83448089      80.25873506       3.50063708      -0.00005670       0.00036819       0.00202309
Si      22.08511030      80.36912243       3.50063547       0.00005808       0.00019704       0.00212814
Si      23.61482153      83.23945475       3.50063622      -0.00004193      -0.00004724       0.00217684
Si      21.89389381      85.99939040       3.50063647      -0.00012399      -0.00017452       0.00214741
Si      23.42360337      88.86971833       3.50063523       0.00003632      -0.00021991       0.00225369
Si      26.67423239      88.98009816       3.50063596       0.00019632       0.00043571       0.00213742
Si      28.20394439      91.85043205       3.50063745       0.00002876      -0.00006753       0.00206009
Si      26.48301387      94.61036303       3.50063685       0.00010746      -0.00003328       0.00207168
Si      28.01272448      97.48069708       3.50063690       0.00014646      -0.00040912       0.00202117
Si      31.26335621      97.59108024       3.50063736      -0.00012633       0.00000230       0.00203652
Si      32.79306834     100.46140762       3.50063620       0.00009742      -0.00018853       0.00213659
Si      31.07213623     103.22133965       3.50063647       0.00003351       0.00020765       0.00209173
Si      32.60184675     106.09167070       3.50063656       0.00007996       0.00020124       0.00214446
Si      35.85247932     106.20205708       3.50063645      -0.00016098       0.00004315       0.00211767
Si      37.38218932     109.07238141       3.50063577      -0.00007129       0.00008179       0.00216148
Si      35.66126228     111.83231224       3.50063777       0.00009455      -0.00015527       0.00200097
Si      37.19096787     114.70264796       3.50063694       0.00024210       0.00011077       0.00207706
Si      40.44159996     114.81303555       3.50063599       0.00014139      -0.00004473       0.00214505
Si      41.97131180     117.68336000       3.50063712      -0.00013973       0.00009147       0.00208572
Si      40.25038261     120.44328843       3.50063740      -0.00012567      -0.00025921       0.00206868
Si      41.78009399     123.31361896       3.50063517      -0.00015043       0.00025245       0.00222639
Si      45.03072170     123.42401198       3.50063532       0.00007997      -0.00013355       0.00220310
Si      46.56043205     126.29433549       3.50063690       0.00018415      -0.00007642       0.00207190
Si      44.83950657     129.05426548       3.50063547      -0.00023535       0.00015638       0.00218326
Si      46.36921077     131.92459415       3.50063950       0.00026539       0.00027060       0.00183129
Si      49.61984639     132.03498166       3.50063801      -0.00009906      -0.00015900       0.00201500
Si      51.14955728     134.90531149       3.50063807       0.00003834       0.00040347       0.00209775
Si      49.42861870     137.66522405       3.50063532       0.00001407      -0.00021466       0.00206381
Si      50.95837789     140.53546808       3.50062375      -0.00035553      -0.00000938       0.00230036
Si      54.20893722     140.64585733       3.50062317       0.00002492      -0.00036255       0.00220587
Si      55.73875445     143.51598115       3.50065406       0.00042131       0.00038418       0.00190630
Si       1.05189887      28.92402908       3.50065076      -0.00048945       0.00015666       0.00211728
Si       0.86068097      34.55428770       3.50065107      -0.00047842       0.00001897       0.00209732
Si       4.11118304      34.66471201       3.50062339      -0.00006983      -0.00000818       0.00228312
Si       5.64078778      37.53503816       3.50063406       0.00030793       0.00003626       0.00206597
Si       3.91996335      40.29497019       3.50062403       0.00000684      -0.00011652       0.00225709
Si       5.44956728      43.16529677       3.50063444       0.00036490      -0.00009050       0.00199427
Si       8.70018588      43.27568715       3.50063741       0.00006841      -0.00003556       0.00209689
Si      10.22989430      46.14601677       3.50063675       0.00007989       0.00001829       0.00207368
Si       8.50896666      48.90594561       3.50063811       0.00005551      -0.00004664       0.00200540
Si      10.03867606      51.77627092       3.50063710      -0.00003018       0.00005240       0.00203428
Si      13.28930595      51.88666098       3.50063731      -0.00000355      -0.00003795       0.00202319
Si      14.81901726      54.75699249       3.50063711      -0.00002816       0.00008664       0.00204220
Si      13.09808675      57.51692050       3.50063688       0.00002161      -0.00003956       0.00208256
Si      14.62779792      60.38724635       3.50063635       0.00002456       0.00017669       0.00212813
Si      17.87842663      60.49763702       3.50063687       0.00006348      -0.00011699       0.00208253
Si      19.40813906      63.36796915       3.50063634       0.00002144      -0.00009573       0.00212356
Si      17.68720818      66.12789326       3.50063731      -0.00005430       0.00009321       0.00205872
Si      19.21691994      68.99822811       3.50063638      -0.00007020      -0.00018446       0.00215991
Si      22.46755012      69.10861361       3.50063743      -0.00000709       0.00008928       0.00204744
Si      23.99726215      71.97894233       3.50063669      -0.00003733      -0.00016656       0.00211189
Si      22.27633106      74.73887097       3.50063719      -0.00005938       0.00009415       0.00199991
Si      23.80603897      77.60920894       3.50063825       0.00013000      -0.00018033       0.00199597
Si      27.05667317      77.71959151       3.50063682       0.00001086       0.00013240       0.00207644
Si      28.58638412      80.58991827       3.50063542       0.00005243      -0.00014779       0.00217313
Si      26.86545406      83.34984583       3.50063597      -0.00007137       0.00014512       0.00219221
Si      28.39516471      86.22018006       3.50063682       0.00008435       0.00018529       0.00208170
Si      31.64579387      86.33056742       3.50063592       0.00013924       0.00011718       0.00223661
Si      33.17550569      89.20089508       3.50063676      -0.00006380      -0.00009644       0.00206085
Si      31.45457596      91.96082306       3.50063644      -0.00013369       0.00009557       0.00208014
Si      32.98428746      94.83115994       3.50063678      -0.00015354      -0.00024137       0.00210538
Si      36.23492141      94.94154556       3.50063707      -0.00028460      -0.00014406       0.00207425
Si      37.76462889      97.81186938       3.50063581       0.00000685       0.00006205       0.00216272
Si      36.04369667     100.57179228       3.50063759      -0.00002025       0.00011456       0.00205661
Si      37.57341039     103.44213516       3.50063767      -0.00013849      -0.00020231       0.00200490
Si      40.82403989     103.55251949       3.50063667       0.00005125       0.00002268       0.00211466
Si      42.35375032     106.42284557       3.50063618       0.00015115       0.00019796       0.00218712
Si      40.63281944     109.18277066       3.50063485       0.00004271       0.00016199       0.00227635
Si      42.16253421     112.05310789       3.50063562      -0.00003517       0.00016525       0.00217078
Si      45.41316627     112.16349940       3.50063723      -0.00023620      -0.00020664       0.00203260
Si      46.94287326     115.03382277       3.50063622      -0.00020854       0.00003194       0.00214081
Si      45.22194684     117.79374710       3.50063695      -0.00006677       0.00009218       0.00207176
Si      46.75165545     120.66408514       3.50063738      -0.00006476      -0.00006200       0.00204286
Si      50.00228475     120.77447460       3.50063593       0.00011506       0.00010604       0.00217292
Si      51.53199577     123.64479703       3.50063650      -0.00001861       0.00018656       0.00206031
Si      49.81106531     126.40472423       3.50063624      -0.00003647      -0.00007054       0.00212128
Si      51.34077964     129.27505889       3.50063593      -0.00012419       0.00028351       0.00209672
Si      54.59140676     129.38545823       3.50063565      -0.00016801      -0.00033992       0.00226070
Si      56.12112172     132.25577128       3.50063670      -0.00013584       0.00056216       0.00203630
Si      54.40018830     135.01570576       3.50063724       0.00002923      -0.00026116       0.00202918
Si      55.92990312     137.88601059       3.50063451      -0.00013059      -0.00067232       0.00228005
Si      59.18052185     137.99640089       3.50063554      -0.00017883      -0.00034920       0.00201974
Si      60.71023722     140.86662627       3.50061787      -0.00005051       0.00040292       0.00238031
Si      58.98930928     143.62638873       3.50065193       0.00000858       0.00041943       0.00183542
Si       1.43433677      17.66351354       3.50065165      -0.00043820       0.00014048       0.00206872
Si       1.24311749      23.29377112       3.50065238      -0.00039758       0.00007452       0.00196944
Si       4.49362084      23.40419630       3.50062348      -0.00005890       0.00001901       0.00228556
Si       6.02322564      26.27452703       3.50063427       0.00031392       0.00004641       0.00203399