5832
Lattice="87.81702473199606 0.0 0.0 0.0 152.10354860534986 0.0 0.0 0.0 100.0" Properties=species:S:1:pos:R:3:forces:R:3 energy=-1993870.0488128662 free_energy=-1993870.0488128662 pbc="T T T"
Si       0.40665299     149.99169680       3.50066784      -0.00067063       0.00017350       0.00165968
Si       0.40666430     138.72500169       3.50065533      -0.00050398      -0.00026318       0.00178548
Si       2.03276314     141.54174582       3.50061909       0.00019768       0.00028381       0.00249742
Si       0.40665257     144.35848743       3.50065426      -0.00051395      -0.00067640       0.00179816
Si       2.03279983     147.17514387       3.50060736      -0.00031474       0.00025256       0.00254938
Si       5.28515325     147.17514383       3.50061955       0.00088705       0.00018095       0.00240958
Si       6.91151068     149.99167687       3.50065744       0.00032297       0.00007704       0.00177644
Si       0.40667609     127.45799036       3.50065377      -0.00066013       0.00002702       0.00200430
Si       2.03277850     130.27474084       3.50061942      -0.00013967       0.00145050       0.00249780
Si       0.40666979     133.09150322       3.50065569      -0.00063334      -0.00118657       0.00173345
Si       2.03277067     135.90824562       3.50062289       0.00007117       0.00044716       0.00221408
Si       5.28520044     135.90825458       3.50063705       0.00068879       0.00030250       0.00191055
Si       6.91143951     138.72501087       3.50063929       0.00019462       0.00013129       0.00170539
Si       5.28519521     141.54175067       3.50063552       0.00059016       0.00012281       0.00214441
Si       6.91143870     144.35850153       3.50063720       0.00037453      -0.00079423       0.00206706
Si      10.16393594     144.35849242       3.50063735      -0.00031337      -0.00078688       0.00193304
Si      11.79023186     147.17514497       3.50062147      -0.00038976      -0.00019963       0.00235669
Si      10.16393237     149.99170018       3.50065013      -0.00032333      -0.00019166       0.00190182
Si       0.40668727     116.19098563       3.50065352      -0.00042425      -0.00018111       0.00195713
Si       2.03278616     119.00774326       3.50062268       0.00025410       0.00008459       0.00224234
Si       0.40668068     121.82448596       3.50065268      -0.00031389      -0.00006243       0.00194591
Si       2.03278120     124.64124916       3.50062169       0.00017352      -0.00020389       0.00232776
Si       5.28521424     124.64124729       3.50063548       0.00032330      -0.00032698       0.00202015
Si       6.91145115     127.45800219       3.50063827       0.00011241      -0.00000200       0.00205053
Si       5.28520728     130.27473911       3.50063399       0.00028471       0.00097405       0.00218208
Si       6.91144609     133.09149047       3.50063764       0.00019933       0.00085152       0.00201066
Si      10.16394933     133.09150042       3.50063667      -0.00001222      -0.00123210       0.00221419
Si      11.79020737     135.90825442       3.50063674      -0.00008628       0.00000221       0.00203316
Si      10.16394345     138.72499461       3.50064039      -0.00011605       0.00018805       0.00184640
Si      11.79019811     141.54175384       3.50063716      -0.00010692       0.00007985       0.00206382
Si      15.04270372     141.54173931       3.50063734      -0.00009819       0.00025702       0.00208633
Si      16.66896392     144.35848297       3.50063508       0.00002579      -0.00066597       0.00206948
Si      15.04265999     147.17513214       3.50062362       0.00037592       0.00015486       0.00226604
Si      16.66903404     149.99167023       3.50065624      -0.00008249       0.00028636       0.00189036
Si      19.92145558     149.99167989       3.50064860      -0.00005241       0.00060456       0.00217775
Si       0.40670011     104.92397933       3.50065481      -0.00053241      -0.00002601       0.00188063
Si       2.03279946     107.74073536       3.50062301       0.00004429      -0.00002960       0.00222517
Si       0.40669183     110.55748733       3.50065448      -0.00046557      -0.00016420       0.00182732
Si       2.03279423     113.37424157       3.50062133       0.00018297      -0.00015088       0.00229297
Si       5.28522606     113.37424069       3.50063544       0.00039656      -0.00003195       0.00205244
Si       6.91146273     116.19099635       3.50063815       0.00010046       0.00009690       0.00207631
Si       5.28521961     119.00774055       3.50063508       0.00038787      -0.00000723       0.00207512
Si       6.91145652     121.82449740       3.50063747       0.00013488      -0.00003078       0.00204157
Si      10.16396179     121.82449097       3.50063736      -0.00008554      -0.00023323       0.00204260
Si      11.79021489     124.64124531       3.50063731       0.00007099      -0.00006744       0.00200313
Si      10.16395370     127.45798814       3.50063604       0.00021329       0.00031114       0.00207233
Si      11.79020993     130.27473065       3.50063476       0.00000069       0.00104719       0.00231255
Si      15.04271460     130.27472678       3.50063731      -0.00019037       0.00080417       0.00202879
Si      16.66897025     133.09149768       3.50063386      -0.00010024       0.00003121       0.00236254
Si      15.04270494     135.90824284       3.50063700       0.00035540      -0.00034778       0.00220769
Si      16.66896053     138.72499962       3.50063857       0.00019886      -0.00048809       0.00198944
Si      19.92146607     138.72498600       3.50063620       0.00013958      -0.00032549       0.00217283
Si      21.54772175     141.54174608       3.50063862       0.00005042      -0.00029736       0.00199146
Si      19.92145689     144.35847183       3.50063688      -0.00002271      -0.00092413       0.00207458
Si      21.54775626     147.17513436       3.50062396      -0.00016619      -0.00055545       0.00213355
Si      24.80018514     147.17512216       3.50062316       0.00022863      -0.00019392       0.00216744
Si      26.42655794     149.99165773       3.50065627       0.00000356       0.00066189       0.00192700
Si       0.40670785      93.65696854       3.50065346      -0.00036828       0.00041996       0.00195606
Si       2.03281098      96.47373202       3.50062269       0.00010192       0.00027564       0.00225135
Si       0.40670110      99.29047931       3.50065338      -0.00027300      -0.00057562       0.00192229
Si       2.03280652     102.10723605       3.50062060       0.00006788      -0.00007449       0.00240043
Si       5.28523592     102.10723172       3.50063459       0.00056482      -0.00020884       0.00212715
Si       6.91147274     104.92398684       3.50063863       0.00030952      -0.00020483       0.00192030
Si       5.28523091     107.74073025       3.50063464       0.00042105       0.00029788       0.00213747
Si       6.91146991     110.55749369       3.50063712       0.00012595       0.00029934       0.00200591
Si      10.16397342     110.55748977       3.50063694      -0.00010092      -0.00018705       0.00204110
Si      11.79022641     113.37423696       3.50063729       0.00004595       0.00014237       0.00209163
Si      10.16396782     116.19098812       3.50063740      -0.00008612       0.00004746       0.00206619
Si      11.79022063     119.00774098       3.50063709       0.00001891      -0.00003350       0.00208943
Si      15.04272533     119.00773622       3.50063635      -0.00005424      -0.00021156       0.00213163
Si      16.66897969     121.82448838       3.50063655       0.00007540       0.00011180       0.00216140
Si      15.04271955     124.64123823       3.50063747       0.00002639      -0.00000786       0.00202210
Si      16.66897193     127.45799013       3.50063752       0.00024223      -0.00025897       0.00189753
Si      19.92147689     127.45797897       3.50063617       0.00000714       0.00002487       0.00214002
Si      21.54773461     130.27473946       3.50063527      -0.00000350       0.00018245       0.00213678
Si      19.92147349     133.09148779       3.50063821       0.00001158      -0.00035211       0.00208173
Si      21.54772793     135.90823833       3.50063796       0.00013590       0.00021913       0.00202365
Si      24.80023470     135.90822424       3.50063871      -0.00010879      -0.00011290       0.00194469
Si      26.42648838     138.72498694       3.50063669      -0.00007354      -0.00021911       0.00211140
Si      24.80022723     141.54173172       3.50063864      -0.00018398       0.00000610       0.00197558
Si      26.42648588     144.35847552       3.50063600       0.00008766      -0.00083260       0.00210405
Si      29.67898223     144.35846567       3.50063599      -0.00012757      -0.00005248       0.00215463
Si      31.30527835     147.17512436       3.50062307      -0.00008348      -0.00019555       0.00222467
Si      29.67897956     149.99167584       3.50065009       0.00000220       0.00040028       0.00189520
Si       0.40672003      82.38996836       3.50065360      -0.00037460      -0.00005999       0.00192958
Si       2.03282248      85.20672495       3.50062291       0.00020097       0.00005480       0.00224000
Si       0.40671567      88.02347715       3.50065346      -0.00044272      -0.00029209       0.00195152
Si       2.03281611      90.84022586       3.50062194       0.00019951       0.00005633       0.00229749
Si       5.28524949      90.84022558       3.50063540       0.00042445      -0.00014141       0.00207739
Si       6.91148658      93.65698159       3.50063721       0.00013465       0.00025367       0.00206792
Si       5.28524492      96.47373432       3.50063611       0.00027912      -0.00001107       0.00203887
Si       6.91148156      99.29048787       3.50063819       0.00006719      -0.00009172       0.00195798
Si      10.16398539      99.29047828       3.50063664       0.00005379      -0.00030897       0.00217706
Si      11.79023884     102.10722756       3.50063702       0.00014116       0.00002837       0.00198049
Si      10.16397877     104.92398325       3.50063697       0.00001095      -0.00001170       0.00208518
Si      11.79023320     107.74073512       3.50063689       0.00002025      -0.00024883       0.00208605
Si      15.04273827     107.74072586       3.50063783      -0.00000152       0.00009356       0.00202953
Si      16.66899185     110.55748444       3.50063588       0.00001976      -0.00021376       0.00216071
Si      15.04273185     113.37422693       3.50063797      -0.00006413       0.00009347       0.00200242
Si      16.66898775     116.19098388       3.50063718      -0.00003666      -0.00001206       0.00205169
Si      19.92149140     116.19097482       3.50063742      -0.00002430       0.00014764       0.00204737
Si      21.54774602     119.00772954       3.50063701       0.00000811       0.00020200       0.00202168
Si      19.92148500     121.82448026       3.50063693      -0.00000544      -0.00001435       0.00211904
Si      21.54773984     124.64123223       3.50063554       0.00008307      -0.00004991       0.00218324
Si      24.80024384     124.64122496       3.50063595       0.00000763      -0.00022690       0.00216634
Si      26.42650054     127.45797780       3.50063532      -0.00000383       0.00012688       0.00220725
Si      24.80023768     130.27473571       3.50063727      -0.00010454      -0.00017718       0.00202812
Si      26.42649513     133.09148327       3.50063572      -0.00003160       0.00035109       0.00216294
Si      29.67899972     133.09147630       3.50063802      -0.00002677       0.00017058       0.00208841
Si      31.30525167     135.90822249       3.50063652       0.00009513       0.00013105       0.00208217
Si      29.67899362     138.72498400       3.50063707       0.00005795      -0.00048656       0.00209678
Si      31.30524645     141.54172623       3.50063680       0.00023582       0.00001041       0.00210112
Si      34.55775393     141.54171467       3.50063679      -0.00003333      -0.00008457       0.00213621
Si      36.18401189     144.35847000       3.50063558       0.00006944      -0.00102616       0.00209035
Si      34.55771219     147.17511083       3.50062410       0.00000821       0.00029865       0.00212920
Si      36.18408602     149.99164357       3.50065611      -0.00009536       0.00088391       0.00192398
Si      39.43650796     149.99166502       3.50064718      -0.00018730      -0.00000193       0.00224688
Si       0.40673238      71.12296577       3.50065202      -0.00041521      -0.00006574       0.00202429
Si       2.03283287      73.93972009       3.50062241       0.00021716      -0.00003459       0.00227924
Si       0.40672538      76.75646074       3.50065337      -0.00031038      -0.00004374       0.00195008
Si       2.03282826      79.57322664       3.50062145       0.00021485       0.00002181       0.00231919
Si       5.28526213      79.57321985       3.50063566       0.00029839       0.00004443       0.00205518
Si       6.91149998      82.38997507       3.50063688       0.00000451       0.00009174       0.00215224
Si       5.28525520      85.20672341       3.50063598       0.00034377       0.00000091       0.00203215
Si       6.91149272      88.02348427       3.50063810       0.00014162      -0.00006473       0.00202699
Si      10.16399776      88.02347292       3.50063712      -0.00007657      -0.00003464       0.00204262
Si      11.79024927      90.84022441       3.50063666       0.00001748      -0.00003250       0.00209889
Si      10.16399013      93.65697395       3.50063666       0.00001232      -0.00009214       0.00215707
Si      11.79024572      96.47373386       3.50063675      -0.00004576       0.00008771       0.00204083
Si      15.04274839      96.47371644       3.50063542       0.00006753       0.00041181       0.00227279
Si      16.66900302      99.29047783       3.50063834       0.00015058      -0.00021389       0.00193416
Si      15.04274319     102.10722163       3.50063646      -0.00005751       0.00006956       0.00205849
Si      16.66899819     104.92398142       3.50063648       0.00005776      -0.00003788       0.00211197
Si      19.92150312     104.92396885       3.50063644      -0.00001516       0.00003689       0.00206679
Si      21.54775731     107.74072624       3.50063629      -0.00006413       0.00009146       0.00218735
Si      19.92149656     110.55747418       3.50063651      -0.00002905      -0.00000852       0.00212400
Si      21.54775109     113.37422657       3.50063654       0.00008828      -0.00007915       0.00210266
Si      24.80025712     113.37421995       3.50063760       0.00004705      -0.00021427       0.00201709
Si      26.42651187     116.19097366       3.50063714      -0.00003324       0.00013257       0.00207910
Si      24.80025124     119.00772042       3.50063732      -0.00003462       0.00007177       0.00201593
Si      26.42650633     121.82447560       3.50063722      -0.00006664       0.00004127       0.00203182
Si      29.67900958     121.82446860       3.50063768      -0.00003802      -0.00010233       0.00200530
Si      31.30526463     124.64122088       3.50063701      -0.00007964       0.00032277       0.00205185
Si      29.67900320     127.45797758       3.50063683       0.00002850      -0.00035113       0.00205481
Si      31.30526009     130.27473237       3.50063532       0.00010744      -0.00019992       0.00219892
Si      34.55776151     130.27472443       3.50063732       0.00007636       0.00008439       0.00213529
Si      36.18401953     133.09146337       3.50063652      -0.00014903       0.00009137       0.00206273
Si      34.55775693     135.90821448       3.50063664      -0.00004709      -0.00038822       0.00212116
Si      36.18401478     138.72498040       3.50063687      -0.00007856       0.00030923       0.00213885
Si      39.43651475     138.72496519       3.50063458       0.00012468       0.00068460       0.00226120
Si      41.06276978     141.54172251       3.50063931       0.00018466      -0.00030941       0.00189333
Si      39.43650431     144.35845118       3.50063535       0.00001751      -0.00010188       0.00204344
Si      41.06280580     147.17512290       3.50062520      -0.00017220      -0.00107196       0.00208367
Si      44.31523831     147.17511055       3.50062216       0.00028440      -0.00074438       0.00228897
Si      45.94161077     149.99163490       3.50065526      -0.00003506       0.00039022       0.00200328
Si       0.40674317      59.85595586       3.50065419      -0.00049071      -0.00014942       0.00187714
Si       2.03284630      62.67271959       3.50062143       0.00010793      -0.00014214       0.00235383
Si       0.40673733      65.48945275       3.50065379      -0.00053624      -0.00018102       0.00190211
Si       2.03284004      68.30621774       3.50062281       0.00012097      -0.00007346       0.00225305
Si       5.28527271      68.30621055       3.50063600       0.00036750      -0.00013779       0.00200096
Si       6.91150905      71.12296974       3.50063785       0.00024654       0.00019851       0.00209023
Si       5.28526703      73.93971552       3.50063596       0.00039154       0.00028181       0.00204674
Si       6.91150595      76.75647750       3.50063693       0.00006783      -0.00012385       0.00213383
Si      10.16400750      76.75646315       3.50063645       0.00012459      -0.00013729       0.00217454
Si      11.79026130      79.57322427       3.50063678       0.00008582      -0.00008397       0.00212016
Si      10.16400264      82.38997039       3.50063672      -0.00000698       0.00003830       0.00209934
Si      11.79025733      85.20672058       3.50063685      -0.00003783       0.00012713       0.00210292
Si      15.04276080      85.20671090       3.50063622      -0.00003886       0.00004187       0.00212420
Si      16.66901542      88.02347382       3.50063686       0.00000275      -0.00000203       0.00208839
Si      15.04275479      90.84021498       3.50063735       0.00003824      -0.00010742       0.00212494
Si      16.66900897      93.65697993       3.50063787       0.00014278      -0.00022792       0.00198772
Si      19.92151336      93.65696668       3.50063597       0.00005294      -0.00014276       0.00216446
Si      21.54776829      96.47371789       3.50063783       0.00010082       0.00023489       0.00199793
Si      19.92150854      99.29046578       3.50063757      -0.00003995       0.00001112       0.00205137
Si      21.54776475     102.10722242       3.50063587       0.00003052      -0.00007289       0.00212919
Si      24.80026686     102.10721303       3.50063689       0.00005068      -0.00004395       0.00204923
Si      26.42652313     104.92396887       3.50063678       0.00005201       0.00020478       0.00210827
Si      24.80026126     107.74071805       3.50063619       0.00005799       0.00000518       0.00213071
Si      26.42651502     110.55747252       3.50063744      -0.00000361      -0.00003668       0.00204063
Si      29.67902153     110.55746146       3.50063711       0.00004655      -0.00007324       0.00204522
Si      31.30527641     113.37421704       3.50063732      -0.00003664       0.00022902       0.00201447
Si      29.67901544     116.19096854       3.50063788       0.00000615      -0.00028012       0.00203354
Si      31.30527229     119.00772239       3.50063752       0.00005573       0.00003691       0.00198300
Si      34.55777421     119.00771133       3.50063745       0.00003217      -0.00018273       0.00192877
Si      36.18403269     121.82447414       3.50063560      -0.00010189      -0.00045975       0.00215651
Si      34.55777373     124.64121583       3.50063701      -0.00014568       0.00029258       0.00204341
Si      36.18402332     127.45796500       3.50063740       0.00011876       0.00027326       0.00204928
Si      39.43652855     127.45796148       3.50063572       0.00020221      -0.00010282       0.00220994
Si      41.06278439     130.27472139       3.50063814      -0.00001643      -0.00005163       0.00183532
Si      39.43652200     133.09145433       3.50063579       0.00012280      -0.00046651       0.00225514
Si      41.06277640     135.90821540       3.50063712       0.00029813      -0.00017421       0.00207772
Si      44.31528523     135.90821018       3.50063757      -0.00027654       0.00025819       0.00191010
Si      45.94153821     138.72497010       3.50063566      -0.00020088      -0.00030853       0.00229448
Si      44.31527918     141.54170782       3.50063861      -0.00022577       0.00066878       0.00193469
Si      45.94153494     144.35845795       3.50063677       0.00023337      -0.00059545       0.00197600
Si      49.19403641     144.35845516       3.50063504      -0.00018390      -0.00091551       0.00216225
Si      50.82032673     147.17510573       3.50062098      -0.00013165      -0.00053007       0.00235673
Si      49.19403113     149.99165141       3.50065024       0.00000150       0.00006850       0.00185513
Si       0.40675536      48.58894894       3.50065419      -0.00033261      -0.00009543       0.00183350
Si       2.03285783      51.40570820       3.50062189       0.00017815       0.00012820       0.00231004
Si       0.40675188      54.22245013       3.50065363      -0.00050124       0.00006032       0.00189577
Si       2.03285261      57.03921201       3.50062150       0.00008606       0.00011140       0.00239592
Si       5.28528598      57.03920856       3.50063554       0.00032257       0.00018161       0.00206260
Si       6.91152360      59.85596714       3.50063677      -0.00003014      -0.00008240       0.00215270
Si       5.28527920      62.67271630       3.50063608       0.00035210      -0.00027303       0.00201898
Si       6.91151800      65.48946529       3.50063752       0.00002618       0.00005077       0.00205648
Si      10.16401980      65.48945689       3.50063627      -0.00004014      -0.00011404       0.00209110
Si      11.79027440      68.30620898       3.50063749      -0.00003734       0.00063037       0.00206747
Si      10.16401544      71.12297010       3.50063845      -0.00005950      -0.00017428       0.00195232
Si      11.79026934      73.93971396       3.50063592       0.00003567       0.00035169       0.00215003
Si      15.04277414      73.93971210       3.50063701      -0.00000986      -0.00007052       0.00209350
Si      16.66902876      76.75646169       3.50063675      -0.00006630      -0.00000533       0.00211054
Si      15.04276767      79.57321015       3.50063734      -0.00009690      -0.00025485       0.00204010
Si      16.66902186      82.38997058       3.50063603      -0.00001746       0.00011911       0.00214234
Si      19.92152525      82.38995926       3.50063626       0.00006474      -0.00018098       0.00215889
Si      21.54778146      85.20671181       3.50063742       0.00003313       0.00015592       0.00205039
Si      19.92151736      88.02345734       3.50063522       0.00015975       0.00031691       0.00216019
Si      21.54777417      90.84021656       3.50063833       0.00011962      -0.00024973       0.00194748
Si      24.80028116      90.84020880       3.50063658      -0.00013181      -0.00010610       0.00212191
Si      26.42653435      93.65696478       3.50063740       0.00002883      -0.00003894       0.00202331
Si      24.80027502      96.47371103       3.50063651      -0.00012851       0.00002575       0.00205204
Si      26.42652930      99.29046424       3.50063717      -0.00007046       0.00012895       0.00207908
Si      29.67903456      99.29045702       3.50063661       0.00001726      -0.00013303       0.00206243
Si      31.30528805     102.10721082       3.50063835       0.00009053       0.00023659       0.00202570
Si      29.67902714     104.92395862       3.50063648       0.00004318       0.00003213       0.00213253
Si      31.30528419     107.74071346       3.50063635      -0.00019651       0.00008799       0.00211938
Si      34.55778626     107.74070735       3.50063644       0.00015424      -0.00009538       0.00213623
Si      36.18404142     110.55746177       3.50063678       0.00013839      -0.00004051       0.00209427
Si      34.55778270     113.37420867       3.50063603      -0.00002015       0.00001028       0.00208239
Si      36.18403420     116.19096597       3.50063720       0.00008251       0.00012401       0.00209332
Si      39.43654233     116.19095118       3.50063739      -0.00008780       0.00044370       0.00208168
Si      41.06279732     119.00771540       3.50063603       0.00002898      -0.00014807       0.00211084
Si      39.43653262     121.82445968       3.50063517       0.00021727      -0.00016746       0.00220372
Si      41.06278922     124.64121610       3.50063693       0.00000042       0.00023347       0.00213008
Si      44.31529513     124.64120905       3.50063622       0.00001705      -0.00012809       0.00214040
Si      45.94154879     127.45796254       3.50063790       0.00034407       0.00008673       0.00202744
Si      44.31528583     130.27470463       3.50063429       0.00010173       0.00010702       0.00226116
Si      45.94153887     133.09145609       3.50063853       0.00016438      -0.00000297       0.00188497
Si      49.19405169     133.09145085       3.50063947      -0.00053498       0.00080458       0.00192211
Si      50.82030869     135.90820007       3.50063463      -0.00024039       0.00079112       0.00223315
Si      49.19404027     138.72496282       3.50064036       0.00035074      -0.00009584       0.00161593
Si      50.82029718     141.54170266       3.50063427      -0.00003512       0.00039210       0.00233348
Si      54.07280455     141.54169901       3.50063781      -0.00028076       0.00014692       0.00191076
Si      55.69906397     144.35844323       3.50063561       0.00013270      -0.00048091       0.00208534
Si      54.07276346     147.17508963       3.50062287      -0.00004926      -0.00027712       0.00230129
Si      55.69913417     149.99161641       3.50065458      -0.00011328       0.00079487       0.00213711
Si      58.95155523     149.99164657       3.50064919       0.00015905      -0.00014304       0.00195254
Si       0.40676944      37.32194435       3.50065403      -0.00059473      -0.00011184       0.00185501
Si       2.03287002      40.13870371       3.50062105       0.00007596       0.00002817       0.00240583
Si       0.40676219      42.95544744       3.50065449      -0.00044519      -0.00007761       0.00187868
Si       2.03286392      45.77220986       3.50062185       0.00013752      -0.00009420       0.00231155
Si       5.28529711      45.77220427       3.50063619       0.00035732      -0.00011264       0.00201232
Si       6.91153450      48.58895850       3.50063714       0.00010064       0.00004756       0.00208385
Si       5.28529041      51.40570637       3.50063578       0.00039571       0.00000767       0.00200356
Si       6.91152873      54.22246350       3.50063724       0.00007305       0.00001487       0.00206977
Si      10.16403218      54.22245612       3.50063719      -0.00001650      -0.00023215       0.00205747
Si      11.79028556      57.03920926       3.50063690       0.00002716       0.00016692       0.00205623
Si      10.16402685      59.85595542       3.50063639      -0.00004649      -0.00010132       0.00215467
Si      11.79027942      62.67271189       3.50063704      -0.00001086       0.00016544       0.00199935
Si      15.04278488      62.67270141       3.50063684      -0.00007378      -0.00002769       0.00208580
Si      16.66903656      65.48945192       3.50063760       0.00018260       0.00066971       0.00203773
Si      15.04277815      68.30620199       3.50063764       0.00003990       0.00013531       0.00198453
Si      16.66903317      71.12296282       3.50063649       0.00001415      -0.00005919       0.00209520
Si      19.92153965      71.12295285       3.50063691      -0.00007024      -0.00014967       0.00208107
Si      21.54779205      73.93970442       3.50063683       0.00005064       0.00024964       0.00208679
Si      19.92153288      76.75645074       3.50063651      -0.00003199      -0.00016434       0.00214623
Si      21.54778444      79.57320735       3.50063643       0.00017720       0.00026323       0.00212511
Si      24.80029180      79.57319412       3.50063575      -0.00004990       0.00058193       0.00227872
Si      26.42654879      82.38996152       3.50063610      -0.00002483      -0.00036483       0.00216561
Si      24.80028489      85.20670523       3.50063704       0.00009678      -0.00007559       0.00202467
Si      26.42653995      88.02345696       3.50063768      -0.00002401       0.00003450       0.00196322
Si      29.67904607      88.02344995       3.50063746      -0.00003790      -0.00013111       0.00201648
Si      31.30529859      90.84020916       3.50063761       0.00010750      -0.00002834       0.00197895
Si      29.67903943      93.65695460       3.50063662       0.00002328       0.00014866       0.00208722
Si      31.30529412      96.47371006       3.50063735       0.00014559       0.00009132       0.00203127
Si      34.55779912      96.47369969       3.50063672      -0.00003821      -0.00004507       0.00206721
Si      36.18405235      99.29045822       3.50063765       0.00013616      -0.00010650       0.00203992
Si      34.55779630     102.10720119       3.50063628      -0.00008566       0.00016802       0.00213239
Si      36.18404661     104.92395757       3.50063699       0.00006694       0.00010174       0.00202434
Si      39.43655247     104.92395216       3.50063720      -0.00011378      -0.00003062       0.00206968
Si      41.06280916     107.74070194       3.50063703      -0.00004282       0.00023849       0.00205955
Si      39.43654802     110.55746058       3.50063624      -0.00003524      -0.00035451       0.00210635
Si      41.06280259     113.37420327       3.50063777       0.00005845       0.00008393       0.00202667